       N       E                     dE             d eps       ncg     rms          rms(c)
DAV:   1    -0.116159533799E+04   -0.11616E+04   -0.67189E-05  4184   0.193E-02    0.236E-02
RMM:   2    -0.116159541011E+04   -0.72126E-04   -0.53410E-05  3440   0.107E-02    0.292E-02
RMM:   3    -0.116159542907E+04   -0.18959E-04   -0.19114E-05  2908   0.449E-03    0.230E-02
RMM:   4    -0.116159542394E+04    0.51369E-05   -0.59499E-06  2626   0.399E-03    0.234E-02
RMM:   5    -0.116159542078E+04    0.31608E-05   -0.23419E-06  1902   0.245E-03    0.234E-02
RMM:   6    -0.116159545685E+04   -0.36079E-04   -0.72863E-06  2381   0.419E-03    0.255E-02
RMM:   7    -0.116159565868E+04   -0.20183E-03   -0.26059E-04  3637   0.182E-02    0.602E-02
RMM:   8    -0.116159576976E+04   -0.11107E-03   -0.18398E-04  3122   0.122E-02    0.746E-02
RMM:   9    -0.116159585325E+04   -0.83491E-04   -0.13069E-04  3032   0.954E-03
   1 F= -.11615959E+04 E0= -.11615959E+04  d E =-.116160E+04  mag=     8.0000
       N       E                     dE             d eps       ncg     rms          rms(c)
DAV:   1    -0.116159184260E+04    0.39272E-02   -0.73657E+00  6352   0.306E+00    0.103E+00
RMM:   2    -0.116160300761E+04   -0.11165E-01   -0.26235E-01  6146   0.643E-01    0.120E+00
RMM:   3    -0.116160059956E+04    0.24080E-02   -0.13277E-02  6508   0.192E-01    0.898E-01
RMM:   4    -0.116159818777E+04    0.24118E-02   -0.10374E-02  6396   0.106E-01    0.461E-01
RMM:   5    -0.116159670463E+04    0.14831E-02   -0.30270E-03  6062   0.651E-02    0.135E-01
RMM:   6    -0.116159665684E+04    0.47792E-04   -0.45828E-04  5181   0.223E-02    0.866E-02
RMM:   7    -0.116159663971E+04    0.17124E-04   -0.11903E-04  4050   0.127E-02    0.548E-02
RMM:   8    -0.116159664634E+04   -0.66214E-05   -0.57467E-05  3834   0.105E-02
   2 F= -.11615966E+04 E0= -.11615966E+04  d E =-.793089E-03  mag=     8.0000
       N       E                     dE             d eps       ncg     rms          rms(c)
DAV:   1    -0.116161067799E+04   -0.14038E-01   -0.21571E+00  6368   0.157E+00    0.698E-01
RMM:   2    -0.116161427581E+04   -0.35978E-02   -0.85348E-02  6150   0.346E-01    0.823E-01
RMM:   3    -0.116161320115E+04    0.10747E-02   -0.35751E-03  6374   0.940E-02    0.641E-01
RMM:   4    -0.116161248566E+04    0.71549E-03   -0.43168E-03  6073   0.662E-02    0.293E-01
RMM:   5    -0.116161189096E+04    0.59470E-03   -0.10542E-03  5436   0.400E-02    0.944E-02
RMM:   6    -0.116161185515E+04    0.35803E-04   -0.15739E-04  4124   0.146E-02    0.585E-02
RMM:   7    -0.116161185093E+04    0.42265E-05   -0.47737E-05  3646   0.109E-02    0.358E-02
RMM:   8    -0.116161185654E+04   -0.56123E-05   -0.38471E-05  3520   0.751E-03
   3 F= -.11616119E+04 E0= -.11616119E+04  d E =-.152102E-01  mag=     8.0000
       N       E                     dE             d eps       ncg     rms          rms(c)
DAV:   1    -0.116161299421E+04   -0.11433E-02   -0.71800E-01  6416   0.974E-01    0.275E-01
RMM:   2    -0.116161483708E+04   -0.18429E-02   -0.20156E-02  6217   0.181E-01    0.244E-01
RMM:   3    -0.116161483305E+04    0.40272E-05   -0.11143E-03  5897   0.637E-02    0.160E-01
RMM:   4    -0.116161478051E+04    0.52542E-04   -0.39325E-04  4924   0.236E-02    0.833E-02
RMM:   5    -0.116161477160E+04    0.89132E-05   -0.10894E-04  3836   0.157E-02    0.213E-02
RMM:   6    -0.116161477729E+04   -0.56935E-05   -0.25963E-05  3486   0.814E-03    0.145E-02
RMM:   7    -0.116161478380E+04   -0.65128E-05   -0.15602E-05  3318   0.564E-03    0.119E-02
RMM:   8    -0.116161479222E+04   -0.84172E-05   -0.11887E-05  3238   0.489E-03
   4 F= -.11616148E+04 E0= -.11616148E+04  d E =-.293568E-02  mag=     8.0000
       N       E                     dE             d eps       ncg     rms          rms(c)
DAV:   1    -0.116161575502E+04   -0.97122E-03   -0.25040E-01  6336   0.574E-01    0.147E-01
RMM:   2    -0.116161636810E+04   -0.61308E-03   -0.65663E-03  6330   0.104E-01    0.111E-01
RMM:   3    -0.116161636767E+04    0.42257E-06   -0.30635E-04  4254   0.348E-02    0.699E-02
RMM:   4    -0.116161635347E+04    0.14203E-04   -0.11255E-04  3585   0.141E-02    0.346E-02
RMM:   5    -0.116161636114E+04   -0.76687E-05   -0.36893E-05  3482   0.879E-03    0.174E-02
RMM:   6    -0.116161636587E+04   -0.47283E-05   -0.14066E-05  3343   0.589E-03    0.117E-02
RMM:   7    -0.116161637036E+04   -0.44975E-05   -0.84407E-06  2934   0.426E-03    0.927E-03
RMM:   8    -0.116161637708E+04   -0.67190E-05   -0.84352E-06  2809   0.388E-03
   5 F= -.11616164E+04 E0= -.11616164E+04  d E =-.158486E-02  mag=     8.0000
       N       E                     dE             d eps       ncg     rms          rms(c)
DAV:   1    -0.116161653707E+04   -0.16671E-03   -0.95282E-01  6384   0.111E+00    0.273E-01
RMM:   2    -0.116161898274E+04   -0.24457E-02   -0.23093E-02  6520   0.192E-01    0.160E-01
RMM:   3    -0.116161905266E+04   -0.69915E-04   -0.11981E-03  5759   0.626E-02    0.932E-02
RMM:   4    -0.116161901563E+04    0.37028E-04   -0.24921E-04  3961   0.214E-02    0.456E-02
RMM:   5    -0.116161902950E+04   -0.13870E-04   -0.10298E-04  3564   0.140E-02    0.152E-02
RMM:   6    -0.116161903969E+04   -0.10194E-04   -0.32550E-05  3486   0.935E-03    0.122E-02
RMM:   7    -0.116161904912E+04   -0.94249E-05   -0.22042E-05  3370   0.622E-03    0.111E-02
RMM:   8    -0.116161906348E+04   -0.14366E-04   -0.18495E-05  3308   0.632E-03
   6 F= -.11616191E+04 E0= -.11616191E+04  d E =-.268640E-02  mag=     8.0000
       N       E                     dE             d eps       ncg     rms          rms(c)
DAV:   1    -0.116161315718E+04    0.58919E-02   -0.38371E+00  6368   0.224E+00    0.538E-01
RMM:   2    -0.116162304514E+04   -0.98880E-02   -0.92470E-02  6529   0.383E-01    0.311E-01
RMM:   3    -0.116162332739E+04   -0.28225E-03   -0.47161E-03  6682   0.124E-01    0.181E-01
RMM:   4    -0.116162319578E+04    0.13162E-03   -0.10930E-03  6659   0.394E-02    0.892E-02
RMM:   5    -0.116162321976E+04   -0.23979E-04   -0.35929E-04  4564   0.222E-02    0.276E-02
RMM:   6    -0.116162323961E+04   -0.19853E-04   -0.64951E-05  3596   0.130E-02    0.187E-02
RMM:   7    -0.116162327449E+04   -0.34882E-04   -0.62904E-05  3548   0.102E-02    0.150E-02
RMM:   8    -0.116162329921E+04   -0.24719E-04   -0.40207E-05  3455   0.820E-03
   7 F= -.11616233E+04 E0= -.11616233E+04  d E =-.423573E-02  mag=     8.0000
       N       E                     dE             d eps       ncg     rms          rms(c)
DAV:   1    -0.116162329338E+04   -0.18891E-04   -0.55570E-01  6400   0.856E-01    0.188E-01
RMM:   2    -0.116162468547E+04   -0.13921E-02   -0.13708E-02  6544   0.147E-01    0.111E-01
RMM:   3    -0.116162469990E+04   -0.14427E-04   -0.63856E-04  5021   0.459E-02    0.671E-02
RMM:   4    -0.116162469206E+04    0.78435E-05   -0.14400E-04  3661   0.170E-02    0.345E-02
RMM:   5    -0.116162471754E+04   -0.25485E-04   -0.74063E-05  3546   0.115E-02    0.147E-02
RMM:   6    -0.116162473085E+04   -0.13311E-04   -0.26806E-05  3463   0.792E-03    0.129E-02
RMM:   7    -0.116162474569E+04   -0.14834E-04   -0.20261E-05  3340   0.595E-03    0.122E-02
RMM:   8    -0.116162476898E+04   -0.23297E-04   -0.22767E-05  3193   0.613E-03
   8 F= -.11616248E+04 E0= -.11616248E+04  d E =-.146977E-02  mag=     8.0000
       N       E                     dE             d eps       ncg     rms          rms(c)
DAV:   1    -0.116162503129E+04   -0.28561E-03   -0.29898E-01  6432   0.626E-01    0.134E-01
RMM:   2    -0.116162577001E+04   -0.73872E-03   -0.72516E-03  6500   0.106E-01    0.783E-02
RMM:   3    -0.116162577698E+04   -0.69701E-05   -0.31294E-04  4155   0.337E-02    0.475E-02
RMM:   4    -0.116162577549E+04    0.14923E-05   -0.82998E-05  3546   0.126E-02    0.252E-02
RMM:   5    -0.116162579019E+04   -0.14697E-04   -0.41235E-05  3489   0.873E-03    0.119E-02
RMM:   6    -0.116162579788E+04   -0.76959E-05   -0.15496E-05  3303   0.590E-03    0.992E-03
RMM:   7    -0.116162580655E+04   -0.86725E-05   -0.11626E-05  2941   0.478E-03    0.902E-03
RMM:   8    -0.116162582248E+04   -0.15930E-04   -0.16570E-05  2964   0.497E-03
   9 F= -.11616258E+04 E0= -.11616258E+04  d E =-.105350E-02  mag=     8.0000
       N       E                     dE             d eps       ncg     rms          rms(c)
DAV:   1    -0.116162564014E+04    0.16641E-03   -0.56957E-01  6376   0.859E-01    0.183E-01
RMM:   2    -0.116162703883E+04   -0.13987E-02   -0.13594E-02  6526   0.145E-01    0.104E-01
RMM:   3    -0.116162705528E+04   -0.16451E-04   -0.62368E-04  4873   0.459E-02    0.621E-02
RMM:   4    -0.116162703804E+04    0.17234E-04   -0.12909E-04  3623   0.161E-02    0.322E-02
RMM:   5    -0.116162704878E+04   -0.10741E-04   -0.64591E-05  3524   0.109E-02    0.116E-02
RMM:   6    -0.116162705586E+04   -0.70788E-05   -0.21298E-05  3404   0.730E-03    0.935E-03
RMM:   7    -0.116162706271E+04   -0.68455E-05   -0.14742E-05  3143   0.505E-03    0.824E-03
RMM:   8    -0.116162707451E+04   -0.11803E-04   -0.14850E-05  3068   0.521E-03
  10 F= -.11616271E+04 E0= -.11616271E+04  d E =-.125203E-02  mag=     8.0000
       N       E                     dE             d eps       ncg     rms          rms(c)
DAV:   1    -0.116162726837E+04   -0.20566E-03   -0.22438E-01  6224   0.535E-01    0.116E-01
RMM:   2    -0.116162782530E+04   -0.55693E-03   -0.53522E-03  6476   0.903E-02    0.668E-02
RMM:   3    -0.116162782946E+04   -0.41586E-05   -0.22464E-04  3934   0.287E-02    0.395E-02
RMM:   4    -0.116162782544E+04    0.40229E-05   -0.59728E-05  3513   0.108E-02    0.208E-02
RMM:   5    -0.116162783270E+04   -0.72584E-05   -0.28576E-05  3410   0.731E-03    0.981E-03
RMM:   6    -0.116162783687E+04   -0.41773E-05   -0.10852E-05  3123   0.506E-03    0.747E-03
RMM:   7    -0.116162784071E+04   -0.38324E-05   -0.67569E-06  2610   0.384E-03    0.670E-03
RMM:   8    -0.116162784689E+04   -0.61873E-05   -0.76002E-06  2547   0.362E-03
  11 F= -.11616278E+04 E0= -.11616278E+04  d E =-.772382E-03  mag=     8.0000
       N       E                     dE             d eps       ncg     rms          rms(c)
DAV:   1    -0.116162767247E+04    0.16824E-03   -0.48126E-01  6352   0.783E-01    0.168E-01
RMM:   2    -0.116162886035E+04   -0.11879E-02   -0.11396E-02  6537   0.132E-01    0.948E-02
RMM:   3    -0.116162887297E+04   -0.12623E-04   -0.51302E-04  4611   0.417E-02    0.555E-02
RMM:   4    -0.116162885592E+04    0.17054E-04   -0.10604E-04  3600   0.148E-02    0.288E-02
RMM:   5    -0.116162886205E+04   -0.61332E-05   -0.52986E-05  3490   0.100E-02    0.103E-02
RMM:   6    -0.116162886680E+04   -0.47531E-05   -0.17502E-05  3345   0.669E-03    0.794E-03
RMM:   7    -0.116162887096E+04   -0.41566E-05   -0.11018E-05  2986   0.454E-03    0.697E-03
RMM:   8    -0.116162887674E+04   -0.57837E-05   -0.93745E-06  2862   0.424E-03
  12 F= -.11616289E+04 E0= -.11616289E+04  d E =-.102985E-02  mag=     8.0000
       N       E                     dE             d eps       ncg     rms          rms(c)
DAV:   1    -0.116162902448E+04   -0.15352E-03   -0.19593E-01  6176   0.498E-01    0.103E-01
RMM:   2    -0.116162950053E+04   -0.47605E-03   -0.46462E-03  6448   0.839E-02    0.592E-02
RMM:   3    -0.116162950174E+04   -0.12083E-05   -0.19393E-04  3858   0.268E-02    0.353E-02
RMM:   4    -0.116162949677E+04    0.49703E-05   -0.51723E-05  3499   0.100E-02    0.187E-02
RMM:   5    -0.116162950091E+04   -0.41426E-05   -0.23943E-05  3353   0.659E-03    0.941E-03
RMM:   6    -0.116162950368E+04   -0.27707E-05   -0.88668E-06  2922   0.467E-03    0.614E-03
RMM:   7    -0.116162950611E+04   -0.24252E-05   -0.55198E-06  2454   0.340E-03    0.554E-03
RMM:   8    -0.116162950900E+04   -0.28909E-05   -0.38963E-06  2275   0.313E-03
  13 F= -.11616295E+04 E0= -.11616295E+04  d E =-.632256E-03  mag=     8.0000
       N       E                     dE             d eps       ncg     rms          rms(c)
DAV:   1    -0.116162961717E+04   -0.11106E-03   -0.24867E-01  6160   0.560E-01    0.115E-01
RMM:   2    -0.116163022205E+04   -0.60489E-03   -0.58754E-03  6486   0.943E-02    0.666E-02
RMM:   3    -0.116163022419E+04   -0.21373E-05   -0.24826E-04  4029   0.298E-02    0.396E-02
RMM:   4    -0.116163021579E+04    0.84028E-05   -0.58412E-05  3508   0.109E-02    0.211E-02
RMM:   5    -0.116163021847E+04   -0.26792E-05   -0.27512E-05  3402   0.730E-03    0.895E-03
RMM:   6    -0.116163022079E+04   -0.23235E-05   -0.10258E-05  3069   0.501E-03    0.580E-03
RMM:   7    -0.116163022252E+04   -0.17246E-05   -0.58098E-06  2533   0.348E-03    0.473E-03
RMM:   8    -0.116163022472E+04   -0.22082E-05   -0.42161E-06  2308   0.322E-03
  14 F= -.11616302E+04 E0= -.11616302E+04  d E =-.715727E-03  mag=     8.0000
       N       E                     dE             d eps       ncg     rms          rms(c)
DAV:   1    -0.116163036800E+04   -0.14548E-03   -0.16688E-01  6192   0.459E-01    0.959E-02
RMM:   2    -0.116163077744E+04   -0.40944E-03   -0.39374E-03  6443   0.773E-02    0.542E-02
RMM:   3    -0.116163077905E+04   -0.16123E-05   -0.15979E-04  3760   0.245E-02    0.315E-02
RMM:   4    -0.116163077424E+04    0.48160E-05   -0.42594E-05  3464   0.912E-03    0.166E-02
RMM:   5    -0.116163077607E+04   -0.18312E-05   -0.18895E-05  3274   0.596E-03    0.731E-03
RMM:   6    -0.116163077774E+04   -0.16684E-05   -0.69309E-06  2737   0.422E-03    0.470E-03
RMM:   7    -0.116163077895E+04   -0.12078E-05   -0.41484E-06  2272   0.304E-03    0.408E-03
RMM:   8    -0.116163078052E+04   -0.15787E-05   -0.27052E-06  2040   0.286E-03
  15 F= -.11616308E+04 E0= -.11616308E+04  d E =-.555799E-03  mag=     8.0000
       N       E                     dE             d eps       ncg     rms          rms(c)
DAV:   1    -0.116163096130E+04   -0.18236E-03   -0.59452E-02  6192   0.273E-01    0.583E-02
RMM:   2    -0.116163110718E+04   -0.14588E-03   -0.13813E-03  5962   0.464E-02    0.328E-02
RMM:   3    -0.116163111035E+04   -0.31669E-05   -0.63062E-05  3465   0.170E-02    0.192E-02
RMM:   4    -0.116163111026E+04    0.89494E-07   -0.21345E-05  3286   0.597E-03    0.119E-02
RMM:   5    -0.116163111125E+04   -0.98969E-06   -0.68774E-06  2766   0.391E-03    0.877E-03
RMM:   6    -0.116163111224E+04   -0.99093E-06   -0.35926E-06  2207   0.295E-03    0.361E-03
RMM:   7    -0.116163111293E+04   -0.69293E-06   -0.16301E-06  1641   0.243E-03    0.287E-03
RMM:   8    -0.116163111389E+04   -0.95399E-06   -0.16692E-06  1526   0.229E-03
  16 F= -.11616311E+04 E0= -.11616311E+04  d E =-.333364E-03  mag=     8.0000
       N       E                     dE             d eps       ncg     rms          rms(c)
DAV:   1    -0.116163125512E+04   -0.14219E-03   -0.12594E-01  6080   0.397E-01    0.817E-02
RMM:   2    -0.116163156431E+04   -0.30919E-03   -0.29768E-03  6404   0.674E-02    0.462E-02
RMM:   3    -0.116163156530E+04   -0.99282E-06   -0.11601E-04  3616   0.211E-02    0.270E-02
RMM:   4    -0.116163156184E+04    0.34625E-05   -0.32548E-05  3401   0.787E-03    0.144E-02
RMM:   5    -0.116163156259E+04   -0.75107E-06   -0.13257E-05  3078   0.509E-03    0.714E-03
RMM:   6    -0.116163156351E+04   -0.92151E-06   -0.48277E-06  2454   0.359E-03    0.369E-03
RMM:   7    -0.116163156415E+04   -0.63563E-06   -0.25963E-06  1975   0.266E-03    0.303E-03
RMM:   8    -0.116163156479E+04   -0.64570E-06   -0.15000E-06  1607   0.244E-03
  17 F= -.11616316E+04 E0= -.11616316E+04  d E =-.450906E-03  mag=     8.0000
       N       E                     dE             d eps       ncg     rms          rms(c)
DAV:   1    -0.116163169317E+04   -0.12902E-03   -0.12173E-01  6112   0.390E-01    0.814E-02
RMM:   2    -0.116163199386E+04   -0.30069E-03   -0.28752E-03  6366   0.662E-02    0.462E-02
RMM:   3    -0.116163199540E+04   -0.15322E-05   -0.11447E-04  3606   0.211E-02    0.268E-02
RMM:   4    -0.116163199203E+04    0.33658E-05   -0.32461E-05  3391   0.777E-03    0.142E-02
RMM:   5    -0.116163199262E+04   -0.58977E-06   -0.12859E-05  3074   0.502E-03    0.603E-03
RMM:   6    -0.116163199350E+04   -0.87744E-06   -0.47321E-06  2431   0.353E-03    0.339E-03
RMM:   7    -0.116163199404E+04   -0.54513E-06   -0.24877E-06  1930   0.264E-03    0.269E-03
RMM:   8    -0.116163199465E+04   -0.60610E-06   -0.15257E-06  1596   0.245E-03
  18 F= -.11616320E+04 E0= -.11616320E+04  d E =-.429855E-03  mag=     8.0000
       N       E                     dE             d eps       ncg     rms          rms(c)
DAV:   1    -0.116163214134E+04   -0.14729E-03   -0.98300E-02  6080   0.350E-01    0.687E-02
RMM:   2    -0.116163237546E+04   -0.23412E-03   -0.23109E-03  6269   0.594E-02    0.394E-02
RMM:   3    -0.116163237565E+04   -0.19372E-06   -0.94253E-05  3552   0.197E-02    0.238E-02
RMM:   4    -0.116163237317E+04    0.24809E-05   -0.28926E-05  3369   0.720E-03    0.128E-02
RMM:   5    -0.116163237382E+04   -0.65318E-06   -0.10475E-05  2982   0.464E-03    0.671E-03
RMM:   6    -0.116163237456E+04   -0.73142E-06   -0.41477E-06  2307   0.327E-03    0.330E-03
RMM:   7    -0.116163237504E+04   -0.48161E-06   -0.20892E-06  1789   0.255E-03    0.252E-03
RMM:   8    -0.116163237553E+04   -0.48825E-06   -0.12626E-06  1475   0.232E-03
  19 F= -.11616324E+04 E0= -.11616324E+04  d E =-.380877E-03  mag=     8.0000
       N       E                     dE             d eps       ncg     rms          rms(c)
DAV:   1    -0.116163244208E+04   -0.67039E-04   -0.17520E-01  6080   0.467E-01    0.936E-02
RMM:   2    -0.116163286509E+04   -0.42301E-03   -0.41098E-03  6468   0.788E-02    0.529E-02
RMM:   3    -0.116163286558E+04   -0.49667E-06   -0.16572E-04  3789   0.244E-02    0.313E-02
RMM:   4    -0.116163285963E+04    0.59540E-05   -0.41084E-05  3437   0.904E-03    0.165E-02
RMM:   5    -0.116163286010E+04   -0.47262E-06   -0.18454E-05  3219   0.598E-03    0.674E-03
RMM:   6    -0.116163286113E+04   -0.10221E-05   -0.65276E-06  2658   0.413E-03    0.389E-03
RMM:   7    -0.116163286176E+04   -0.63013E-06   -0.35651E-06  2178   0.291E-03    0.285E-03
RMM:   8    -0.116163286235E+04   -0.59303E-06   -0.20406E-06  1810   0.267E-03
  20 F= -.11616329E+04 E0= -.11616329E+04  d E =-.486822E-03  mag=     8.0000
       N       E                     dE             d eps       ncg     rms          rms(c)
DAV:   1    -0.116163272602E+04    0.13573E-03   -0.30035E-01  6144   0.611E-01    0.119E-01
RMM:   2    -0.116163343763E+04   -0.71161E-03   -0.70056E-03  6470   0.103E-01    0.691E-02
RMM:   3    -0.116163343844E+04   -0.80813E-06   -0.29776E-04  4152   0.323E-02    0.417E-02
RMM:   4    -0.116163342641E+04    0.12031E-04   -0.66076E-05  3508   0.115E-02    0.220E-02
RMM:   5    -0.116163342708E+04   -0.67742E-06   -0.30640E-05  3417   0.781E-03    0.837E-03
RMM:   6    -0.116163342865E+04   -0.15639E-05   -0.10972E-05  3113   0.519E-03    0.492E-03
RMM:   7    -0.116163342957E+04   -0.91665E-06   -0.61397E-06  2559   0.355E-03    0.353E-03
RMM:   8    -0.116163343030E+04   -0.73246E-06   -0.36753E-06  2251   0.318E-03
  21 F= -.11616334E+04 E0= -.11616334E+04  d E =-.567950E-03  mag=     8.0000
       N       E                     dE             d eps       ncg     rms          rms(c)
DAV:   1    -0.116163344313E+04   -0.13567E-04   -0.18479E-01  6112   0.480E-01    0.902E-02
RMM:   2    -0.116163387222E+04   -0.42909E-03   -0.43501E-03  6377   0.808E-02    0.530E-02
RMM:   3    -0.116163386898E+04    0.32440E-05   -0.17976E-04  3796   0.259E-02    0.327E-02
RMM:   4    -0.116163386191E+04    0.70693E-05   -0.48496E-05  3467   0.951E-03    0.170E-02
RMM:   5    -0.116163386275E+04   -0.83685E-06   -0.19435E-05  3276   0.621E-03    0.702E-03
RMM:   6    -0.116163386387E+04   -0.11203E-05   -0.76161E-06  2855   0.430E-03    0.432E-03
RMM:   7    -0.116163386454E+04   -0.67444E-06   -0.42087E-06  2277   0.312E-03    0.305E-03
RMM:   8    -0.116163386511E+04   -0.57273E-06   -0.25016E-06  1928   0.278E-03
  22 F= -.11616339E+04 E0= -.11616339E+04  d E =-.434816E-03  mag=     8.0000
       N       E                     dE             d eps       ncg     rms          rms(c)
DAV:   1    -0.116163395073E+04   -0.86192E-04   -0.72728E-02  6144   0.301E-01    0.562E-02
RMM:   2    -0.116163411254E+04   -0.16181E-03   -0.17157E-03  6086   0.514E-02    0.358E-02
RMM:   3    -0.116163411101E+04    0.15267E-05   -0.74985E-05  3497   0.180E-02    0.226E-02
RMM:   4    -0.116163410833E+04    0.26804E-05   -0.26343E-05  3347   0.669E-03    0.133E-02
RMM:   5    -0.116163410861E+04   -0.28148E-06   -0.82436E-06  2960   0.429E-03    0.844E-03
RMM:   6    -0.116163410919E+04   -0.57551E-06   -0.37508E-06  2297   0.305E-03    0.351E-03
RMM:   7    -0.116163410955E+04   -0.35686E-06   -0.18484E-06  1756   0.251E-03    0.284E-03
RMM:   8    -0.116163410986E+04   -0.31760E-06   -0.11212E-06  1454   0.222E-03
  23 F= -.11616341E+04 E0= -.11616341E+04  d E =-.244750E-03  mag=     8.0000
