       N       E                     dE             d eps       ncg     rms          rms(c)
DAV:   1    -0.116048957952E+04   -0.11605E+04   -0.38705E-06  7312   0.360E-03    0.360E-03
RMM:   2    -0.116048958107E+04   -0.15514E-05   -0.21399E-06  3643   0.263E-03    0.443E-03
RMM:   3    -0.116048958147E+04   -0.39392E-06   -0.40398E-07  1861   0.179E-03    0.388E-03
RMM:   4    -0.116048958026E+04    0.12052E-05   -0.28608E-07  1750   0.185E-03    0.385E-03
RMM:   5    -0.116048958108E+04   -0.81999E-06   -0.13401E-07  1337   0.174E-03    0.367E-03
RMM:   6    -0.116048958630E+04   -0.52157E-05   -0.86627E-06  4159   0.373E-03    0.469E-03
RMM:   7    -0.116048958930E+04   -0.29989E-05   -0.50887E-06  2737   0.249E-03    0.411E-03
RMM:   8    -0.116048959035E+04   -0.10513E-05   -0.12233E-06  1986   0.197E-03
   1 F= -.11604896E+04 E0= -.11604896E+04  d E =-.116049E+04  mag=     8.0000
       N       E                     dE             d eps       ncg     rms          rms(c)
DAV:   1    -0.116048995850E+04   -0.36920E-03   -0.70601E-01 12784   0.971E-01    0.297E-01
RMM:   2    -0.116049100884E+04   -0.10503E-02   -0.22900E-02 12341   0.200E-01    0.300E-01
RMM:   3    -0.116049080314E+04    0.20570E-03   -0.13037E-03 12261   0.648E-02    0.209E-01
RMM:   4    -0.116049056343E+04    0.23971E-03   -0.76713E-04 10929   0.309E-02    0.111E-01
RMM:   5    -0.116049048081E+04    0.82620E-04   -0.19382E-04  8429   0.205E-02    0.345E-02
RMM:   6    -0.116049048342E+04   -0.26156E-05   -0.40925E-05  7233   0.982E-03    0.225E-02
RMM:   7    -0.116049048514E+04   -0.17195E-05   -0.17895E-05  6894   0.658E-03    0.200E-02
RMM:   8    -0.116049048734E+04   -0.21924E-05   -0.11798E-05  6741   0.494E-03
   2 F= -.11604905E+04 E0= -.11604905E+04  d E =-.896989E-03  mag=     8.0000
       N       E                     dE             d eps       ncg     rms          rms(c)
DAV:   1    -0.116049228062E+04   -0.17955E-02   -0.17864E-01 12616   0.486E-01    0.169E-01
RMM:   2    -0.116049246467E+04   -0.18406E-03   -0.68165E-03 12239   0.106E-01    0.190E-01
RMM:   3    -0.116049236980E+04    0.94875E-04   -0.30053E-04  9249   0.335E-02    0.138E-01
RMM:   4    -0.116049228502E+04    0.84778E-04   -0.32358E-04 10230   0.195E-02    0.699E-02
RMM:   5    -0.116049225222E+04    0.32798E-04   -0.70637E-05  7800   0.127E-02    0.238E-02
RMM:   6    -0.116049225313E+04   -0.90571E-06   -0.18600E-05  6578   0.592E-03    0.168E-02
RMM:   7    -0.116049225401E+04   -0.88777E-06   -0.74323E-06  5821   0.432E-03    0.136E-02
RMM:   8    -0.116049225550E+04   -0.14877E-05   -0.57308E-06  5775   0.325E-03
   3 F= -.11604923E+04 E0= -.11604923E+04  d E =-.176817E-02  mag=     8.0000
       N       E                     dE             d eps       ncg     rms          rms(c)
DAV:   1    -0.116049266957E+04   -0.41555E-03   -0.19079E-01 12600   0.511E-01    0.106E-01
RMM:   2    -0.116049308418E+04   -0.41461E-03   -0.49287E-03 12877   0.897E-02    0.804E-02
RMM:   3    -0.116049307024E+04    0.13943E-04   -0.20491E-04  7796   0.291E-02    0.519E-02
RMM:   4    -0.116049305704E+04    0.13199E-04   -0.71387E-05  7037   0.116E-02    0.276E-02
RMM:   5    -0.116049305651E+04    0.53052E-06   -0.24546E-05  6828   0.724E-03    0.852E-03
RMM:   6    -0.116049305802E+04   -0.15069E-05   -0.89704E-06  6420   0.485E-03    0.666E-03
RMM:   7    -0.116049305901E+04   -0.98994E-06   -0.48444E-06  5261   0.337E-03    0.497E-03
RMM:   8    -0.116049306033E+04   -0.13210E-05   -0.34219E-06  4725   0.311E-03
   4 F= -.11604931E+04 E0= -.11604931E+04  d E =-.804824E-03  mag=     8.0000
       N       E                     dE             d eps       ncg     rms          rms(c)
DAV:   1    -0.116049338730E+04   -0.32830E-03   -0.42123E-02 12160   0.237E-01    0.509E-02
RMM:   2    -0.116049346817E+04   -0.80866E-04   -0.11276E-03 12103   0.430E-02    0.400E-02
RMM:   3    -0.116049346220E+04    0.59729E-05   -0.50464E-05  6855   0.152E-02    0.263E-02
RMM:   4    -0.116049345826E+04    0.39318E-05   -0.27471E-05  6742   0.649E-03    0.152E-02
RMM:   5    -0.116049345811E+04    0.15539E-06   -0.74081E-06  5839   0.415E-03    0.840E-03
RMM:   6    -0.116049345879E+04   -0.68462E-06   -0.34196E-06  4534   0.285E-03    0.549E-03
RMM:   7    -0.116049345934E+04   -0.54670E-06   -0.14889E-06  3133   0.249E-03    0.379E-03
RMM:   8    -0.116049346031E+04   -0.96804E-06   -0.16516E-06  3114   0.234E-03
   5 F= -.11604935E+04 E0= -.11604935E+04  d E =-.399982E-03  mag=     8.0000
       N       E                     dE             d eps       ncg     rms          rms(c)
DAV:   1    -0.116049377150E+04   -0.31216E-03   -0.18762E-01 12544   0.501E-01    0.938E-02
RMM:   2    -0.116049419515E+04   -0.42365E-03   -0.46707E-03 12913   0.862E-02    0.647E-02
RMM:   3    -0.116049418485E+04    0.10307E-04   -0.18834E-04  7619   0.274E-02    0.421E-02
RMM:   4    -0.116049417663E+04    0.82104E-05   -0.57790E-05  6980   0.107E-02    0.223E-02
RMM:   5    -0.116049417815E+04   -0.15111E-05   -0.20059E-05  6783   0.659E-03    0.759E-03
RMM:   6    -0.116049417950E+04   -0.13536E-05   -0.79925E-06  6283   0.459E-03    0.540E-03
RMM:   7    -0.116049418035E+04   -0.85340E-06   -0.44149E-06  4831   0.329E-03    0.448E-03
RMM:   8    -0.116049418137E+04   -0.10212E-05   -0.28364E-06  4318   0.295E-03
   6 F= -.11604942E+04 E0= -.11604942E+04  d E =-.721066E-03  mag=     8.0000
       N       E                     dE             d eps       ncg     rms          rms(c)
DAV:   1    -0.116049430850E+04   -0.12814E-03   -0.32895E-01 12688   0.663E-01    0.123E-01
RMM:   2    -0.116049505655E+04   -0.74805E-03   -0.81062E-03 12925   0.112E-01    0.813E-02
RMM:   3    -0.116049504025E+04    0.16294E-04   -0.33473E-04  8449   0.353E-02    0.523E-02
RMM:   4    -0.116049502355E+04    0.16705E-04   -0.94425E-05  7139   0.134E-02    0.241E-02
RMM:   5    -0.116049502739E+04   -0.38406E-05   -0.31770E-05  6922   0.843E-03    0.737E-03
RMM:   6    -0.116049502939E+04   -0.20009E-05   -0.13216E-05  6695   0.567E-03    0.590E-03
RMM:   7    -0.116049503064E+04   -0.12544E-05   -0.77367E-06  5911   0.409E-03    0.448E-03
RMM:   8    -0.116049503207E+04   -0.14211E-05   -0.52902E-06  5254   0.367E-03
   7 F= -.11604950E+04 E0= -.11604950E+04  d E =-.850692E-03  mag=     8.0000
       N       E                     dE             d eps       ncg     rms          rms(c)
DAV:   1    -0.116049491881E+04    0.11184E-03   -0.46667E-01 12744   0.788E-01    0.143E-01
RMM:   2    -0.116049597857E+04   -0.10598E-02   -0.11436E-02 12904   0.133E-01    0.935E-02
RMM:   3    -0.116049595883E+04    0.19746E-04   -0.49856E-04  9367   0.424E-02    0.601E-02
RMM:   4    -0.116049593460E+04    0.24221E-04   -0.12420E-04  7242   0.155E-02    0.292E-02
RMM:   5    -0.116049593892E+04   -0.43151E-05   -0.43033E-05  7002   0.985E-03    0.116E-02
RMM:   6    -0.116049594145E+04   -0.25330E-05   -0.17925E-05  6811   0.665E-03    0.807E-03
RMM:   7    -0.116049594312E+04   -0.16674E-05   -0.11155E-05  6395   0.487E-03    0.659E-03
RMM:   8    -0.116049594454E+04   -0.14183E-05   -0.69250E-06  5616   0.420E-03
   8 F= -.11604959E+04 E0= -.11604959E+04  d E =-.912473E-03  mag=     8.0000
