       N       E                     dE             d eps       ncg     rms          rms(c)
DAV:   1    -0.116038415433E+04   -0.11604E+04   -0.97892E-06  7592   0.590E-03    0.623E-03
RMM:   2    -0.116038415769E+04   -0.33551E-05   -0.56070E-06  5519   0.420E-03    0.851E-03
RMM:   3    -0.116038415871E+04   -0.10207E-05   -0.23600E-06  3148   0.221E-03    0.547E-03
RMM:   4    -0.116038415794E+04    0.76450E-06   -0.10455E-06  2712   0.233E-03    0.563E-03
RMM:   5    -0.116038415804E+04   -0.95868E-07   -0.35817E-07  1773   0.187E-03    0.555E-03
RMM:   6    -0.116038415799E+04    0.48094E-07   -0.18510E-07  1514   0.191E-03    0.562E-03
RMM:   7    -0.116038415821E+04   -0.21489E-06   -0.46475E-08  1198   0.181E-03    0.558E-03
RMM:   8    -0.116038415870E+04   -0.49004E-06   -0.20216E-07  1332   0.186E-03
   1 F= -.11603842E+04 E0= -.11603842E+04  d E =-.116038E+04  mag=     8.0000
       N       E                     dE             d eps       ncg     rms          rms(c)
DAV:   1    -0.116038505341E+04   -0.89520E-03   -0.20434E-01 12464   0.518E-01    0.992E-02
RMM:   2    -0.116038549979E+04   -0.44637E-03   -0.50748E-03 12873   0.893E-02    0.640E-02
RMM:   3    -0.116038548564E+04    0.14143E-04   -0.20538E-04  7726   0.285E-02    0.405E-02
RMM:   4    -0.116038547418E+04    0.11461E-04   -0.67119E-05  6963   0.112E-02    0.215E-02
RMM:   5    -0.116038547724E+04   -0.30566E-05   -0.23379E-05  6723   0.690E-03    0.101E-02
RMM:   6    -0.116038548012E+04   -0.28780E-05   -0.97086E-06  6246   0.476E-03    0.818E-03
RMM:   7    -0.116038548244E+04   -0.23241E-05   -0.51725E-06  4898   0.344E-03    0.683E-03
RMM:   8    -0.116038548649E+04   -0.40514E-05   -0.53790E-06  4770   0.337E-03
   2 F= -.11603855E+04 E0= -.11603855E+04  d E =-.132779E-02  mag=     8.0000
       N       E                     dE             d eps       ncg     rms          rms(c)
DAV:   1    -0.116038602540E+04   -0.54296E-03   -0.34311E-02 12224   0.212E-01    0.461E-02
RMM:   2    -0.116038608983E+04   -0.64435E-04   -0.89163E-04 11826   0.379E-02    0.330E-02
RMM:   3    -0.116038608591E+04    0.39179E-05   -0.40529E-05  6456   0.133E-02    0.213E-02
RMM:   4    -0.116038608379E+04    0.21224E-05   -0.23101E-05  6302   0.600E-03    0.130E-02
RMM:   5    -0.116038608551E+04   -0.17206E-05   -0.64125E-06  5244   0.365E-03    0.809E-03
RMM:   6    -0.116038608708E+04   -0.15655E-05   -0.31827E-06  3750   0.288E-03    0.663E-03
RMM:   7    -0.116038608867E+04   -0.15983E-05   -0.16694E-06  2880   0.237E-03    0.547E-03
RMM:   8    -0.116038609212E+04   -0.34431E-05   -0.36402E-06  3847   0.288E-03
   3 F= -.11603861E+04 E0= -.11603861E+04  d E =-.605627E-03  mag=     8.0000
       N       E                     dE             d eps       ncg     rms          rms(c)
DAV:   1    -0.116038660043E+04   -0.51176E-03   -0.46680E-02 12208   0.248E-01    0.460E-02
RMM:   2    -0.116038670471E+04   -0.10428E-03   -0.11092E-03 11972   0.423E-02    0.272E-02
RMM:   3    -0.116038670525E+04   -0.53606E-06   -0.50079E-05  6610   0.156E-02    0.178E-02
RMM:   4    -0.116038670605E+04   -0.80507E-06   -0.18812E-05  6314   0.577E-03    0.117E-02
RMM:   5    -0.116038670797E+04   -0.19238E-05   -0.52937E-06  4738   0.361E-03    0.768E-03
RMM:   6    -0.116038670961E+04   -0.16402E-05   -0.34128E-06  4042   0.285E-03    0.528E-03
RMM:   7    -0.116038671095E+04   -0.13379E-05   -0.15531E-06  2873   0.238E-03    0.470E-03
RMM:   8    -0.116038671276E+04   -0.18029E-05   -0.18950E-06  2897   0.237E-03
   4 F= -.11603867E+04 E0= -.11603867E+04  d E =-.620637E-03  mag=     8.0000
       N       E                     dE             d eps       ncg     rms          rms(c)
DAV:   1    -0.116038733852E+04   -0.62757E-03   -0.89437E-02 12288   0.344E-01    0.632E-02
RMM:   2    -0.116038754414E+04   -0.20562E-03   -0.21659E-03 12643   0.587E-02    0.371E-02
RMM:   3    -0.116038754218E+04    0.19613E-05   -0.84295E-05  6902   0.193E-02    0.235E-02
RMM:   4    -0.116038754114E+04    0.10394E-05   -0.28361E-05  6607   0.716E-03    0.130E-02
RMM:   5    -0.116038754334E+04   -0.21961E-05   -0.91936E-06  5789   0.445E-03    0.722E-03
RMM:   6    -0.116038754474E+04   -0.14051E-05   -0.41339E-06  4641   0.318E-03    0.506E-03
RMM:   7    -0.116038754597E+04   -0.12289E-05   -0.20996E-06  3521   0.261E-03    0.465E-03
RMM:   8    -0.116038754731E+04   -0.13383E-05   -0.15061E-06  2787   0.230E-03
   5 F= -.11603875E+04 E0= -.11603875E+04  d E =-.834555E-03  mag=     8.0000
       N       E                     dE             d eps       ncg     rms          rms(c)
DAV:   1    -0.116038802853E+04   -0.48256E-03   -0.48560E-02 12192   0.253E-01    0.480E-02
RMM:   2    -0.116038813978E+04   -0.11125E-03   -0.11586E-03 11999   0.433E-02    0.281E-02
RMM:   3    -0.116038814066E+04   -0.87476E-06   -0.52903E-05  6701   0.160E-02    0.180E-02
RMM:   4    -0.116038814098E+04   -0.32483E-06   -0.19094E-05  6381   0.577E-03    0.118E-02
RMM:   5    -0.116038814234E+04   -0.13510E-05   -0.54992E-06  4921   0.367E-03    0.793E-03
RMM:   6    -0.116038814364E+04   -0.13085E-05   -0.35740E-06  4130   0.287E-03    0.468E-03
RMM:   7    -0.116038814457E+04   -0.93138E-06   -0.14518E-06  2944   0.238E-03    0.410E-03
RMM:   8    -0.116038814548E+04   -0.90418E-06   -0.10579E-06  2445   0.219E-03
   6 F= -.11603881E+04 E0= -.11603881E+04  d E =-.598169E-03  mag=     8.0000
       N       E                     dE             d eps       ncg     rms          rms(c)
DAV:   1    -0.116038868500E+04   -0.54042E-03   -0.66849E-02 12160   0.297E-01    0.550E-02
RMM:   2    -0.116038883939E+04   -0.15440E-03   -0.16045E-03 12311   0.509E-02    0.318E-02
RMM:   3    -0.116038883954E+04   -0.14700E-06   -0.67936E-05  6798   0.179E-02    0.202E-02
RMM:   4    -0.116038883922E+04    0.32231E-06   -0.23237E-05  6523   0.642E-03    0.120E-02
RMM:   5    -0.116038884064E+04   -0.14254E-05   -0.70212E-06  5308   0.404E-03    0.772E-03
RMM:   6    -0.116038884180E+04   -0.11533E-05   -0.38554E-06  4495   0.300E-03    0.456E-03
RMM:   7    -0.116038884263E+04   -0.83203E-06   -0.16138E-06  3191   0.244E-03    0.389E-03
RMM:   8    -0.116038884371E+04   -0.10836E-05   -0.12984E-06  2609   0.224E-03
   7 F= -.11603888E+04 E0= -.11603888E+04  d E =-.698232E-03  mag=     8.0000
       N       E                     dE             d eps       ncg     rms          rms(c)
DAV:   1    -0.116038928516E+04   -0.44253E-03   -0.40673E-02 12144   0.232E-01    0.431E-02
RMM:   2    -0.116038937846E+04   -0.93295E-04   -0.96710E-04 11755   0.398E-02    0.243E-02
RMM:   3    -0.116038937971E+04   -0.12491E-05   -0.46034E-05  6619   0.148E-02    0.158E-02
RMM:   4    -0.116038938011E+04   -0.40281E-06   -0.15984E-05  5969   0.540E-03    0.104E-02
RMM:   5    -0.116038938112E+04   -0.10154E-05   -0.47919E-06  4536   0.343E-03    0.693E-03
RMM:   6    -0.116038938213E+04   -0.10091E-05   -0.27380E-06  3646   0.277E-03    0.398E-03
RMM:   7    -0.116038938284E+04   -0.71012E-06   -0.14324E-06  2726   0.232E-03    0.346E-03
RMM:   8    -0.116038938371E+04   -0.86773E-06   -0.11018E-06  2489   0.224E-03
   8 F= -.11603894E+04 E0= -.11603894E+04  d E =-.540001E-03  mag=     8.0000
       N       E                     dE             d eps       ncg     rms          rms(c)
DAV:   1    -0.116038976503E+04   -0.38218E-03   -0.29635E-02 12160   0.197E-01    0.369E-02
RMM:   2    -0.116038983251E+04   -0.67479E-04   -0.69547E-04 10666   0.340E-02    0.209E-02
RMM:   3    -0.116038983436E+04   -0.18506E-05   -0.36792E-05  6505   0.128E-02    0.133E-02
RMM:   4    -0.116038983487E+04   -0.51671E-06   -0.12370E-05  5737   0.494E-03    0.894E-03
RMM:   5    -0.116038983572E+04   -0.84267E-06   -0.40603E-06  4336   0.328E-03    0.639E-03
RMM:   6    -0.116038983654E+04   -0.82656E-06   -0.20245E-06  3120   0.255E-03    0.338E-03
RMM:   7    -0.116038983714E+04   -0.59525E-06   -0.11481E-06  2438   0.223E-03    0.313E-03
RMM:   8    -0.116038983774E+04   -0.60264E-06   -0.81698E-07  2209   0.216E-03
   9 F= -.11603898E+04 E0= -.11603898E+04  d E =-.454028E-03  mag=     8.0000
