       N       E                     dE             d eps       ncg     rms          rms(c)
DAV:   1     0.118027703162E+05    0.11803E+05   -0.41832E+05 12352   0.130E+03
DAV:   2     0.621523068445E+03   -0.11181E+05   -0.99885E+04 12288   0.372E+02
DAV:   3    -0.136872996912E+04   -0.19903E+04   -0.19191E+04 13248   0.163E+02
DAV:   4    -0.149791529970E+04   -0.12919E+03   -0.12696E+03 16312   0.430E+01
DAV:   5    -0.150574066831E+04   -0.78254E+01   -0.77943E+01 22072   0.912E+00    0.183E+02
RMM:   6    -0.116641597162E+04    0.33932E+03   -0.15828E+03 12479   0.341E+01    0.969E+01
RMM:   7    -0.115364623095E+04    0.12770E+02   -0.63588E+01 12813   0.976E+00    0.587E+01
RMM:   8    -0.116423535918E+04   -0.10589E+02   -0.42855E+01 12582   0.696E+00    0.303E+01
RMM:   9    -0.116331722480E+04    0.91813E+00   -0.75953E+00 12689   0.276E+00    0.146E+01
RMM:  10    -0.116037870265E+04    0.29385E+01   -0.48235E+00 12612   0.197E+00    0.110E+01
RMM:  11    -0.116079947221E+04   -0.42077E+00   -0.69064E+00 12453   0.192E+00    0.113E+01
RMM:  12    -0.116039927873E+04    0.40019E+00   -0.85986E-01 12757   0.771E-01    0.483E+00
RMM:  13    -0.116114355133E+04   -0.74427E+00   -0.73714E-01 12325   0.754E-01    0.399E+00
RMM:  14    -0.116152664214E+04   -0.38309E+00   -0.30552E-01 12535   0.494E-01    0.260E+00
RMM:  15    -0.116179860906E+04   -0.27197E+00   -0.26326E-01 12359   0.485E-01    0.163E+00
RMM:  16    -0.116185921894E+04   -0.60610E-01   -0.12302E-01 12774   0.325E-01    0.905E-01
RMM:  17    -0.116188344684E+04   -0.24228E-01   -0.39158E-02 13846   0.168E-01    0.576E-01
RMM:  18    -0.116189027138E+04   -0.68245E-02   -0.15620E-02 13008   0.115E-01    0.332E-01
RMM:  19    -0.116189293576E+04   -0.26644E-02   -0.49602E-03 14351   0.600E-02    0.313E-01
RMM:  20    -0.116189339024E+04   -0.45448E-03   -0.24447E-03 12478   0.427E-02    0.209E-01
RMM:  21    -0.116189379955E+04   -0.40931E-03   -0.14317E-03 11574   0.329E-02    0.116E-01
RMM:  22    -0.116189437102E+04   -0.57146E-03   -0.84211E-04 11186   0.254E-02    0.761E-02
RMM:  23    -0.116189473590E+04   -0.36489E-03   -0.47917E-04 10307   0.200E-02    0.574E-02
RMM:  24    -0.116189498540E+04   -0.24950E-03   -0.26977E-04  8955   0.152E-02    0.499E-02
RMM:  25    -0.116189527202E+04   -0.28662E-03   -0.27296E-04  8966   0.155E-02    0.454E-02
RMM:  26    -0.116189551687E+04   -0.24485E-03   -0.20481E-04  8633   0.134E-02    0.429E-02
RMM:  27    -0.116189567229E+04   -0.15542E-03   -0.96933E-05  8216   0.952E-03    0.427E-02
RMM:  28    -0.116189572841E+04   -0.56115E-04   -0.30233E-05  7838   0.531E-03
   1 F= -.11618957E+04 E0= -.11618912E+04  d E =-.116190E+04  mag=     3.9870
       N       E                     dE             d eps       ncg     rms          rms(c)
DAV:   1    -0.113815774856E+04    0.23738E+02   -0.19446E+03 12832   0.405E+01    0.392E+01
RMM:   2    -0.115534266519E+04   -0.17185E+02   -0.19730E+02 12304   0.106E+01    0.214E+01
RMM:   3    -0.115445483845E+04    0.88783E+00   -0.12505E+01 12713   0.231E+00    0.126E+01
RMM:   4    -0.115437222974E+04    0.82609E-01   -0.45420E+00 12757   0.146E+00    0.933E+00
RMM:   5    -0.115394744186E+04    0.42479E+00   -0.11006E+00 12896   0.712E-01    0.313E+00
RMM:   6    -0.115389174363E+04    0.55698E-01   -0.43340E-01 13116   0.466E-01    0.387E+00
RMM:   7    -0.115389739369E+04   -0.56501E-02   -0.14808E-01 14052   0.229E-01    0.247E+00
RMM:   8    -0.115393638499E+04   -0.38991E-01   -0.78341E-02 13190   0.190E-01    0.254E+00
RMM:   9    -0.115389609723E+04    0.40288E-01   -0.10641E-01 12409   0.231E-01    0.113E+00
RMM:  10    -0.115389924352E+04   -0.31463E-02   -0.37210E-02 13466   0.114E-01    0.584E-01
RMM:  11    -0.115390686159E+04   -0.76181E-02   -0.77421E-03 12808   0.649E-02    0.872E-01
RMM:  12    -0.115390675377E+04    0.10782E-03   -0.10561E-02 12237   0.777E-02    0.327E-01
RMM:  13    -0.115390703891E+04   -0.28514E-03   -0.19007E-03 11720   0.325E-02    0.113E-01
RMM:  14    -0.115390731260E+04   -0.27369E-03   -0.62106E-04 10065   0.184E-02    0.913E-02
RMM:  15    -0.115390746145E+04   -0.14885E-03   -0.24463E-04  8623   0.124E-02    0.658E-02
RMM:  16    -0.115390755878E+04   -0.97331E-04   -0.18246E-04  8516   0.111E-02
   2 F= -.11539076E+04 E0= -.11538938E+04  d E =0.798817E+01  mag=     2.8552
       N       E                     dE             d eps       ncg     rms          rms(c)
DAV:   1    -0.115151992167E+04    0.23875E+01   -0.14306E+03 12560   0.304E+01    0.305E+01
RMM:   2    -0.116265770405E+04   -0.11138E+02   -0.12195E+02 12288   0.828E+00    0.292E+01
RMM:   3    -0.116203608700E+04    0.62162E+00   -0.76539E+00 12352   0.218E+00    0.212E+01
RMM:   4    -0.115979894729E+04    0.22371E+01   -0.48069E+00 12308   0.178E+00    0.106E+01
RMM:   5    -0.116007692006E+04   -0.27797E+00   -0.19775E+00 12314   0.109E+00    0.101E+01
RMM:   6    -0.116008428427E+04   -0.73642E-02   -0.54734E-01 12284   0.594E-01    0.687E+00
RMM:   7    -0.115978658651E+04    0.29770E+00   -0.39046E-01 12327   0.492E-01    0.442E+00
RMM:   8    -0.115964561583E+04    0.14097E+00   -0.28849E-01 12576   0.423E-01    0.571E+00
RMM:   9    -0.115972612643E+04   -0.80511E-01   -0.10793E-01 12167   0.303E-01    0.227E+00
RMM:  10    -0.115980992934E+04   -0.83803E-01   -0.16650E-02 12387   0.132E-01    0.191E+00
RMM:  11    -0.115986365969E+04   -0.53730E-01   -0.85367E-03 12235   0.851E-02    0.173E+00
RMM:  12    -0.115993227298E+04   -0.68613E-01   -0.16154E-02 12082   0.127E-01    0.136E+00
RMM:  13    -0.115997866520E+04   -0.46392E-01   -0.21893E-02 12147   0.154E-01    0.875E-01
RMM:  14    -0.115998892720E+04   -0.10262E-01   -0.13139E-02 12093   0.110E-01    0.584E-01
RMM:  15    -0.115999255715E+04   -0.36299E-02   -0.45550E-03 12443   0.593E-02    0.418E-01
RMM:  16    -0.115999344585E+04   -0.88871E-03   -0.27372E-03 11637   0.488E-02    0.277E-01
RMM:  17    -0.115999381240E+04   -0.36655E-03   -0.11034E-03 11186   0.293E-02    0.209E-01
RMM:  18    -0.115999397022E+04   -0.15782E-03   -0.75255E-04 10620   0.266E-02    0.154E-01
RMM:  19    -0.115999403447E+04   -0.64241E-04   -0.39788E-04 10079   0.193E-02
   3 F= -.11599940E+04 E0= -.11599896E+04  d E =-.608648E+01  mag=     1.9629
       N       E                     dE             d eps       ncg     rms          rms(c)
DAV:   1    -0.116025426539E+04   -0.26030E+00   -0.49026E+02 12440   0.232E+01    0.798E+00
RMM:   2    -0.116222067706E+04   -0.19664E+01   -0.20737E+01 12288   0.540E+00    0.109E+01
RMM:   3    -0.116205356778E+04    0.16711E+00   -0.89959E-01 12894   0.114E+00    0.875E+00
RMM:   4    -0.116197396087E+04    0.79607E-01   -0.57003E-01 12300   0.674E-01    0.542E+00
RMM:   5    -0.116181418406E+04    0.15978E+00   -0.17503E-01 12223   0.345E-01    0.235E+00
RMM:   6    -0.116184832163E+04   -0.34138E-01   -0.10473E-01 12275   0.294E-01    0.158E+00
RMM:   7    -0.116184388356E+04    0.44381E-02   -0.33822E-02 12131   0.169E-01    0.798E-01
RMM:   8    -0.116184503200E+04   -0.11484E-02   -0.10389E-02 13003   0.778E-02    0.572E-01
RMM:   9    -0.116184853392E+04   -0.35019E-02   -0.51211E-03 11984   0.620E-02    0.403E-01
RMM:  10    -0.116185446335E+04   -0.59294E-02   -0.68633E-03 12109   0.781E-02    0.340E-01
RMM:  11    -0.116185612117E+04   -0.16578E-02   -0.26681E-03 11773   0.443E-02    0.226E-01
RMM:  12    -0.116185761038E+04   -0.14892E-02   -0.13526E-03 10882   0.325E-02    0.170E-01
RMM:  13    -0.116185903817E+04   -0.14278E-02   -0.84342E-04 10448   0.268E-02    0.133E-01
RMM:  14    -0.116185937780E+04   -0.33963E-03   -0.15287E-04  8383   0.106E-02    0.133E-01
RMM:  15    -0.116185868949E+04    0.68830E-03   -0.16567E-04  8376   0.144E-02    0.131E-01
RMM:  16    -0.116185833272E+04    0.35677E-03   -0.62038E-05  7633   0.781E-03    0.133E-01
RMM:  17    -0.116185813674E+04    0.19598E-03   -0.22908E-05  6898   0.463E-03    0.133E-01
RMM:  18    -0.116185744048E+04    0.69626E-03   -0.12660E-04  8224   0.123E-02    0.128E-01
RMM:  19    -0.116185403434E+04    0.34061E-02   -0.31382E-03 11275   0.590E-02    0.167E-01
RMM:  20    -0.116185412695E+04   -0.92609E-04   -0.11475E-04  8134   0.104E-02
   4 F= -.11618541E+04 E0= -.11618487E+04  d E =-.186009E+01  mag=     2.1693
       N       E                     dE             d eps       ncg     rms          rms(c)
DAV:   1    -0.116254278524E+04   -0.68875E+00   -0.11001E+02 13072   0.103E+01    0.356E+00
RMM:   2    -0.116285368066E+04   -0.31090E+00   -0.32216E+00 12288   0.190E+00    0.295E+00
RMM:   3    -0.116283504476E+04    0.18636E-01   -0.15488E-01 12731   0.408E-01    0.170E+00
RMM:   4    -0.116283444658E+04    0.59819E-03   -0.76356E-02 12255   0.241E-01    0.116E+00
RMM:   5    -0.116282814582E+04    0.63008E-02   -0.25879E-02 12419   0.146E-01    0.473E-01
RMM:   6    -0.116282814212E+04    0.36969E-05   -0.54613E-03 12739   0.632E-02    0.330E-01
RMM:   7    -0.116282851574E+04   -0.37362E-03   -0.14252E-03 11974   0.337E-02    0.179E-01
RMM:   8    -0.116282952963E+04   -0.10139E-02   -0.86157E-04 10962   0.292E-02    0.123E-01
RMM:   9    -0.116282981694E+04   -0.28730E-03   -0.47259E-04 10308   0.216E-02    0.750E-02
RMM:  10    -0.116282992244E+04   -0.10550E-03   -0.14964E-04  8384   0.121E-02    0.562E-02
RMM:  11    -0.116283004269E+04   -0.12025E-03   -0.10725E-04  8248   0.966E-03    0.450E-02
RMM:  12    -0.116283015242E+04   -0.10973E-03   -0.73818E-05  7938   0.874E-03    0.373E-02
RMM:  13    -0.116283024619E+04   -0.93778E-04   -0.55701E-05  7695   0.745E-03
   5 F= -.11628302E+04 E0= -.11628224E+04  d E =-.976119E+00  mag=     2.6148
       N       E                     dE             d eps       ncg     rms          rms(c)
DAV:   1    -0.116340632653E+04   -0.57617E+00   -0.11393E+02 12560   0.964E+00    0.343E+00
RMM:   2    -0.116368940683E+04   -0.28308E+00   -0.33526E+00 12292   0.183E+00    0.297E+00
RMM:   3    -0.116366064854E+04    0.28758E-01   -0.15558E-01 12720   0.383E-01    0.170E+00
RMM:   4    -0.116364865216E+04    0.11996E-01   -0.57288E-02 12200   0.194E-01    0.899E-01
RMM:   5    -0.116364231703E+04    0.63351E-02   -0.12984E-02 12537   0.101E-01    0.226E-01
RMM:   6    -0.116364232077E+04   -0.37438E-05   -0.18581E-03 12922   0.349E-02    0.155E-01
RMM:   7    -0.116364238210E+04   -0.61331E-04   -0.62377E-04 11599   0.198E-02    0.871E-02
RMM:   8    -0.116364239683E+04   -0.14729E-04   -0.22426E-04  8793   0.136E-02
   6 F= -.11636424E+04 E0= -.11636381E+04  d E =-.812151E+00  mag=     2.8773
       N       E                     dE             d eps       ncg     rms          rms(c)
DAV:   1    -0.116396049370E+04   -0.31811E+00   -0.29474E+01 12824   0.491E+00    0.189E+00
RMM:   2    -0.116402113916E+04   -0.60645E-01   -0.76399E-01 12292   0.875E-01    0.132E+00
RMM:   3    -0.116401632999E+04    0.48092E-02   -0.43399E-02 12556   0.192E-01    0.678E-01
RMM:   4    -0.116401319237E+04    0.31376E-02   -0.13381E-02 12445   0.944E-02    0.355E-01
RMM:   5    -0.116401206612E+04    0.11263E-02   -0.30641E-03 12526   0.447E-02    0.136E-01
RMM:   6    -0.116401205587E+04    0.10251E-04   -0.47400E-04 10302   0.184E-02    0.801E-02
RMM:   7    -0.116401208829E+04   -0.32420E-04   -0.18192E-04  8470   0.118E-02    0.252E-02
RMM:   8    -0.116401209345E+04   -0.51561E-05   -0.80103E-05  7842   0.788E-03
   7 F= -.11640121E+04 E0= -.11640081E+04  d E =-.369697E+00  mag=     2.9440
       N       E                     dE             d eps       ncg     rms          rms(c)
DAV:   1    -0.116423962655E+04   -0.22754E+00   -0.46008E+01 12720   0.643E+00    0.244E+00
RMM:   2    -0.116435130125E+04   -0.11167E+00   -0.13426E+00 12292   0.120E+00    0.185E+00
RMM:   3    -0.116434353820E+04    0.77630E-02   -0.75785E-02 13052   0.258E-01    0.104E+00
RMM:   4    -0.116433866680E+04    0.48714E-02   -0.24170E-02 13165   0.133E-01    0.493E-01
RMM:   5    -0.116433674116E+04    0.19256E-02   -0.56019E-03 13979   0.592E-02    0.169E-01
RMM:   6    -0.116433673675E+04    0.44033E-05   -0.85998E-04 12468   0.243E-02    0.103E-01
RMM:   7    -0.116433679208E+04   -0.55329E-04   -0.36546E-04  9917   0.151E-02    0.480E-02
RMM:   8    -0.116433678973E+04    0.23569E-05   -0.16794E-04  8319   0.106E-02
   8 F= -.11643368E+04 E0= -.11643330E+04  d E =-.324696E+00  mag=     2.9590
       N       E                     dE             d eps       ncg     rms          rms(c)
DAV:   1    -0.116433765825E+04   -0.86617E-03   -0.51482E+01 12656   0.742E+00    0.265E+00
RMM:   2    -0.116447833031E+04   -0.14067E+00   -0.17248E+00 12295   0.147E+00    0.259E+00
RMM:   3    -0.116446694725E+04    0.11383E-01   -0.90229E-02 14181   0.310E-01    0.188E+00
RMM:   4    -0.116446197291E+04    0.49743E-02   -0.45849E-02 13069   0.186E-01    0.791E-01
RMM:   5    -0.116445781033E+04    0.41626E-02   -0.10369E-02 13754   0.865E-02    0.197E-01
RMM:   6    -0.116445758771E+04    0.22263E-03   -0.12295E-03 13754   0.320E-02    0.124E-01
RMM:   7    -0.116445758108E+04    0.66271E-05   -0.56327E-04 12210   0.184E-02    0.699E-02
RMM:   8    -0.116445756606E+04    0.15024E-04   -0.23168E-04  9187   0.125E-02
   9 F= -.11644576E+04 E0= -.11644540E+04  d E =-.120776E+00  mag=     2.9798
       N       E                     dE             d eps       ncg     rms          rms(c)
DAV:   1    -0.116447156076E+04   -0.13980E-01   -0.48582E+00 13288   0.248E+00    0.669E-01
RMM:   2    -0.116448218137E+04   -0.10621E-01   -0.13855E-01 12295   0.447E-01    0.638E-01
RMM:   3    -0.116448135182E+04    0.82954E-03   -0.62874E-03 13064   0.983E-02    0.449E-01
RMM:   4    -0.116448089706E+04    0.45476E-03   -0.29283E-03 12009   0.508E-02    0.247E-01
RMM:   5    -0.116448050756E+04    0.38949E-03   -0.94507E-04 10991   0.282E-02    0.547E-02
RMM:   6    -0.116448049633E+04    0.11231E-04   -0.84071E-05  7867   0.101E-02    0.376E-02
RMM:   7    -0.116448049353E+04    0.27996E-05   -0.40022E-05  7189   0.694E-03    0.240E-02
RMM:   8    -0.116448049396E+04   -0.42171E-06   -0.31410E-05  7038   0.608E-03
  10 F= -.11644805E+04 E0= -.11644768E+04  d E =-.229279E-01  mag=     2.9869
       N       E                     dE             d eps       ncg     rms          rms(c)
DAV:   1    -0.116448310969E+04   -0.26162E-02   -0.35063E+00 12952   0.210E+00    0.466E-01
RMM:   2    -0.116449096803E+04   -0.78583E-02   -0.94434E-02 12298   0.365E-01    0.526E-01
RMM:   3    -0.116449059148E+04    0.37656E-03   -0.38653E-03 13217   0.798E-02    0.410E-01
RMM:   4    -0.116449047103E+04    0.12044E-03   -0.13639E-03 11440   0.336E-02    0.268E-01
RMM:   5    -0.116449011390E+04    0.35713E-03   -0.92483E-04 10997   0.264E-02    0.471E-02
RMM:   6    -0.116449009528E+04    0.18618E-04   -0.57289E-05  7471   0.914E-03    0.399E-02
RMM:   7    -0.116449008783E+04    0.74492E-05   -0.29924E-05  7053   0.593E-03    0.199E-02
RMM:   8    -0.116449008667E+04    0.11582E-05   -0.32808E-05  6988   0.608E-03
  11 F= -.11644901E+04 E0= -.11644862E+04  d E =-.959271E-02  mag=     2.9880
       N       E                     dE             d eps       ncg     rms          rms(c)
DAV:   1    -0.116445961477E+04    0.30473E-01   -0.25037E+01 12672   0.564E+00    0.138E+00
RMM:   2    -0.116451902725E+04   -0.59412E-01   -0.69781E-01 12302   0.100E+00    0.128E+00
RMM:   3    -0.116451620469E+04    0.28226E-02   -0.32303E-02 13609   0.224E-01    0.935E-01
RMM:   4    -0.116451454715E+04    0.16575E-02   -0.10557E-02 13724   0.965E-02    0.495E-01
RMM:   5    -0.116451340234E+04    0.11448E-02   -0.44644E-03 13454   0.566E-02    0.103E-01
RMM:   6    -0.116451331766E+04    0.84679E-04   -0.46864E-04 11034   0.209E-02    0.709E-02
RMM:   7    -0.116451330741E+04    0.10246E-04   -0.20081E-04  8548   0.129E-02    0.377E-02
RMM:   8    -0.116451331293E+04   -0.55154E-05   -0.10402E-04  7452   0.981E-03
  12 F= -.11645133E+04 E0= -.11645095E+04  d E =-.232263E-01  mag=     2.9959
       N       E                     dE             d eps       ncg     rms          rms(c)
DAV:   1    -0.116451889470E+04   -0.55873E-02   -0.75514E+00 12864   0.311E+00    0.664E-01
RMM:   2    -0.116453605350E+04   -0.17159E-01   -0.19636E-01 12302   0.528E-01    0.601E-01
RMM:   3    -0.116453542695E+04    0.62655E-03   -0.84943E-03 12961   0.121E-01    0.427E-01
RMM:   4    -0.116453505966E+04    0.36729E-03   -0.28927E-03 12888   0.497E-02    0.253E-01
RMM:   5    -0.116453471970E+04    0.33997E-03   -0.11860E-03 11865   0.292E-02    0.448E-02
RMM:   6    -0.116453470556E+04    0.14136E-04   -0.10431E-04  7709   0.111E-02    0.313E-02
RMM:   7    -0.116453470508E+04    0.48077E-06   -0.61843E-05  7268   0.767E-03    0.164E-02
RMM:   8    -0.116453470736E+04   -0.22756E-05   -0.37409E-05  7041   0.644E-03
  13 F= -.11645347E+04 E0= -.11645308E+04  d E =-.213944E-01  mag=     2.9991
       N       E                     dE             d eps       ncg     rms          rms(c)
DAV:   1    -0.116453461174E+04    0.93342E-04   -0.47592E+00 12688   0.248E+00    0.425E-01
RMM:   2    -0.116454505858E+04   -0.10447E-01   -0.11594E-01 12301   0.404E-01    0.336E-01
RMM:   3    -0.116454479115E+04    0.26743E-03   -0.48060E-03 12389   0.967E-02    0.228E-01
RMM:   4    -0.116454456278E+04    0.22837E-03   -0.14659E-03 12668   0.356E-02    0.139E-01
RMM:   5    -0.116454443746E+04    0.12532E-03   -0.50764E-04 11417   0.198E-02    0.254E-02
RMM:   6    -0.116454443711E+04    0.34631E-06   -0.42030E-05  7313   0.832E-03    0.188E-02
RMM:   7    -0.116454443966E+04   -0.25449E-05   -0.48796E-05  7146   0.661E-03    0.104E-02
RMM:   8    -0.116454444200E+04   -0.23470E-05   -0.29398E-05  6917   0.547E-03
  14 F= -.11645444E+04 E0= -.11645405E+04  d E =-.973464E-02  mag=     3.0015
       N       E                     dE             d eps       ncg     rms          rms(c)
DAV:   1    -0.116454139244E+04    0.30472E-02   -0.56090E+00 12792   0.269E+00    0.437E-01
RMM:   2    -0.116455376267E+04   -0.12370E-01   -0.13472E-01 12300   0.436E-01    0.285E-01
RMM:   3    -0.116455347342E+04    0.28925E-03   -0.56045E-03 12436   0.106E-01    0.189E-01
RMM:   4    -0.116455321586E+04    0.25756E-03   -0.16737E-03 13003   0.381E-02    0.945E-02
RMM:   5    -0.116455314216E+04    0.73697E-04   -0.37116E-04 11058   0.170E-02    0.261E-02
RMM:   6    -0.116455314594E+04   -0.37742E-05   -0.40609E-05  7338   0.868E-03    0.162E-02
RMM:   7    -0.116455315165E+04   -0.57133E-05   -0.61944E-05  7223   0.695E-03    0.976E-03
RMM:   8    -0.116455315365E+04   -0.20006E-05   -0.31268E-05  6866   0.567E-03
  15 F= -.11645532E+04 E0= -.11645492E+04  d E =-.871165E-02  mag=     3.0026
       N       E                     dE             d eps       ncg     rms          rms(c)
DAV:   1    -0.116455156927E+04    0.15824E-02   -0.35626E+00 12752   0.215E+00    0.353E-01
RMM:   2    -0.116455941333E+04   -0.78441E-02   -0.85863E-02 12300   0.348E-01    0.234E-01
RMM:   3    -0.116455920987E+04    0.20346E-03   -0.35652E-03 12372   0.846E-02    0.152E-01
RMM:   4    -0.116455904181E+04    0.16807E-03   -0.10918E-03 12596   0.309E-02    0.786E-02
RMM:   5    -0.116455899132E+04    0.50482E-04   -0.22774E-04  9510   0.141E-02    0.231E-02
RMM:   6    -0.116455899534E+04   -0.40177E-05   -0.31560E-05  7185   0.794E-03    0.135E-02
RMM:   7    -0.116455899956E+04   -0.42144E-05   -0.48075E-05  7038   0.650E-03    0.102E-02
RMM:   8    -0.116455900136E+04   -0.18062E-05   -0.26864E-05  6653   0.497E-03
  16 F= -.11645590E+04 E0= -.11645550E+04  d E =-.584771E-02  mag=     3.0047
       N       E                     dE             d eps       ncg     rms          rms(c)
DAV:   1    -0.116455419017E+04    0.48094E-02   -0.52070E+00 12672   0.260E+00    0.422E-01
RMM:   2    -0.116456570398E+04   -0.11514E-01   -0.12483E-01 12300   0.420E-01    0.271E-01
RMM:   3    -0.116456543607E+04    0.26791E-03   -0.51177E-03 12324   0.102E-01    0.177E-01
RMM:   4    -0.116456519326E+04    0.24281E-03   -0.15726E-03 12954   0.368E-02    0.808E-02
RMM:   5    -0.116456514585E+04    0.47405E-04   -0.28993E-04 10251   0.155E-02    0.247E-02
RMM:   6    -0.116456515042E+04   -0.45731E-05   -0.37686E-05  7252   0.870E-03    0.147E-02
RMM:   7    -0.116456515583E+04   -0.54019E-05   -0.63922E-05  7163   0.707E-03    0.882E-03
RMM:   8    -0.116456515803E+04   -0.22043E-05   -0.33919E-05  6754   0.562E-03
  17 F= -.11645652E+04 E0= -.11645611E+04  d E =-.615667E-02  mag=     3.0051
       N       E                     dE             d eps       ncg     rms          rms(c)
DAV:   1    -0.116456403972E+04    0.11161E-02   -0.20440E+00 12984   0.163E+00    0.265E-01
RMM:   2    -0.116456857114E+04   -0.45314E-02   -0.49260E-02 12300   0.264E-01    0.167E-01
RMM:   3    -0.116456845575E+04    0.11539E-03   -0.20419E-03 12257   0.643E-02    0.109E-01
RMM:   4    -0.116456835334E+04    0.10241E-03   -0.63896E-04 12029   0.236E-02    0.433E-02
RMM:   5    -0.116456834140E+04    0.11948E-04   -0.10100E-04  7359   0.101E-02    0.162E-02
RMM:   6    -0.116456834514E+04   -0.37493E-05   -0.34116E-05  7026   0.641E-03    0.974E-03
RMM:   7    -0.116456834730E+04   -0.21597E-05   -0.25680E-05  6687   0.517E-03    0.617E-03
RMM:   8    -0.116456834861E+04   -0.13110E-05   -0.15300E-05  6322   0.410E-03
  18 F= -.11645683E+04 E0= -.11645643E+04  d E =-.319058E-02  mag=     3.0059
       N       E                     dE             d eps       ncg     rms          rms(c)
DAV:   1    -0.116456635807E+04    0.19892E-02   -0.22673E+00 12864   0.172E+00    0.277E-01
RMM:   2    -0.116457136782E+04   -0.50098E-02   -0.54232E-02 12299   0.277E-01    0.173E-01
RMM:   3    -0.116457125249E+04    0.11533E-03   -0.22303E-03 12199   0.675E-02    0.113E-01
RMM:   4    -0.116457113771E+04    0.11478E-03   -0.69899E-04 11879   0.247E-02    0.378E-02
RMM:   5    -0.116457113215E+04    0.55673E-05   -0.91852E-05  7281   0.978E-03    0.160E-02
RMM:   6    -0.116457113591E+04   -0.37665E-05   -0.34346E-05  7009   0.636E-03    0.978E-03
RMM:   7    -0.116457113796E+04   -0.20527E-05   -0.24587E-05  6695   0.515E-03    0.617E-03
RMM:   8    -0.116457113928E+04   -0.13190E-05   -0.14930E-05  6282   0.410E-03
  19 F= -.11645711E+04 E0= -.11645671E+04  d E =-.279067E-02  mag=     3.0070
       N       E                     dE             d eps       ncg     rms          rms(c)
DAV:   1    -0.116457074233E+04    0.39564E-03   -0.93956E-01 13040   0.111E+00    0.182E-01
RMM:   2    -0.116457282812E+04   -0.20858E-02   -0.22691E-02 12298   0.180E-01    0.114E-01
RMM:   3    -0.116457277630E+04    0.51821E-04   -0.92976E-04 11399   0.437E-02    0.749E-02
RMM:   4    -0.116457273218E+04    0.44121E-04   -0.28715E-04  8536   0.162E-02    0.308E-02
RMM:   5    -0.116457272655E+04    0.56248E-05   -0.52256E-05  7069   0.775E-03    0.108E-02
RMM:   6    -0.116457272881E+04   -0.22594E-05   -0.21294E-05  6818   0.487E-03    0.683E-03
RMM:   7    -0.116457272987E+04   -0.10608E-05   -0.11710E-05  6369   0.371E-03    0.418E-03
RMM:   8    -0.116457273059E+04   -0.71774E-06   -0.73987E-06  6069   0.307E-03
  20 F= -.11645727E+04 E0= -.11645686E+04  d E =-.159131E-02  mag=     3.0073
       N       E                     dE             d eps       ncg     rms          rms(c)
DAV:   1    -0.116457223279E+04    0.49708E-03   -0.83537E-01 12864   0.105E+00    0.169E-01
RMM:   2    -0.116457407885E+04   -0.18461E-02   -0.20033E-02 12298   0.169E-01    0.105E-01
RMM:   3    -0.116457403269E+04    0.46155E-04   -0.80386E-04 11001   0.410E-02    0.682E-02
RMM:   4    -0.116457399247E+04    0.40221E-04   -0.24510E-04  8022   0.153E-02    0.269E-02
RMM:   5    -0.116457398921E+04    0.32595E-05   -0.44895E-05  7027   0.722E-03    0.962E-03
RMM:   6    -0.116457399128E+04   -0.20648E-05   -0.18835E-05  6792   0.460E-03    0.631E-03
RMM:   7    -0.116457399216E+04   -0.88578E-06   -0.10047E-05  6236   0.348E-03    0.371E-03
RMM:   8    -0.116457399275E+04   -0.58020E-06   -0.62158E-06  5813   0.294E-03
  21 F= -.11645740E+04 E0= -.11645699E+04  d E =-.126215E-02  mag=     3.0081
       N       E                     dE             d eps       ncg     rms          rms(c)
DAV:   1    -0.116457371028E+04    0.28189E-03   -0.55740E-01 13000   0.857E-01    0.139E-01
RMM:   2    -0.116457495683E+04   -0.12466E-02   -0.13478E-02 12274   0.139E-01    0.867E-02
RMM:   3    -0.116457492718E+04    0.29656E-04   -0.52635E-04  9526   0.336E-02    0.572E-02
RMM:   4    -0.116457490203E+04    0.25146E-04   -0.15465E-04  7274   0.129E-02    0.232E-02
RMM:   5    -0.116457490102E+04    0.10065E-05   -0.37418E-05  6935   0.648E-03    0.787E-03
RMM:   6    -0.116457490270E+04   -0.16726E-05   -0.15857E-05  6706   0.410E-03    0.531E-03
RMM:   7    -0.116457490348E+04   -0.78510E-06   -0.83954E-06  5873   0.319E-03    0.333E-03
RMM:   8    -0.116457490398E+04   -0.49525E-06   -0.47815E-06  5081   0.267E-03
  22 F= -.11645749E+04 E0= -.11645708E+04  d E =-.911231E-03  mag=     3.0082
       N       E                     dE             d eps       ncg     rms          rms(c)
DAV:   1    -0.116457445786E+04    0.44562E-03   -0.58649E-01 12832   0.881E-01    0.143E-01
RMM:   2    -0.116457576572E+04   -0.13079E-02   -0.14162E-02 12281   0.142E-01    0.885E-02
RMM:   3    -0.116457573451E+04    0.31202E-04   -0.55180E-04  9718   0.344E-02    0.580E-02
RMM:   4    -0.116457570756E+04    0.26952E-04   -0.16410E-04  7324   0.133E-02    0.218E-02
RMM:   5    -0.116457570723E+04    0.32785E-06   -0.37367E-05  6936   0.648E-03    0.780E-03
RMM:   6    -0.116457570896E+04   -0.17255E-05   -0.16209E-05  6708   0.412E-03    0.522E-03
RMM:   7    -0.116457570977E+04   -0.81286E-06   -0.87288E-06  6029   0.320E-03    0.317E-03
RMM:   8    -0.116457571028E+04   -0.50245E-06   -0.49670E-06  5247   0.266E-03
  23 F= -.11645757E+04 E0= -.11645716E+04  d E =-.806299E-03  mag=     3.0085
       N       E                     dE             d eps       ncg     rms          rms(c)
DAV:   1    -0.116457512431E+04    0.58546E-03   -0.58739E-01 12832   0.882E-01    0.143E-01
RMM:   2    -0.116457643080E+04   -0.13065E-02   -0.14149E-02 12265   0.142E-01    0.881E-02
RMM:   3    -0.116457640005E+04    0.30758E-04   -0.55205E-04  9694   0.345E-02    0.578E-02
RMM:   4    -0.116457637335E+04    0.26694E-04   -0.16451E-04  7316   0.133E-02    0.207E-02
RMM:   5    -0.116457637336E+04   -0.63155E-08   -0.36898E-05  6949   0.642E-03    0.780E-03
RMM:   6    -0.116457637507E+04   -0.17153E-05   -0.16303E-05  6710   0.411E-03    0.512E-03
RMM:   7    -0.116457637589E+04   -0.81446E-06   -0.87208E-06  6009   0.319E-03    0.311E-03
RMM:   8    -0.116457637640E+04   -0.50716E-06   -0.49478E-06  5244   0.266E-03
  24 F= -.11645764E+04 E0= -.11645722E+04  d E =-.666120E-03  mag=     3.0090
