       N       E                     dE             d eps       ncg     rms          rms(c)
DAV:   1     0.120143729135E+05    0.12014E+05   -0.42318E+05  6168   0.132E+03
DAV:   2     0.687995813266E+03   -0.11326E+05   -0.10116E+05  6152   0.378E+02
DAV:   3    -0.135280667282E+04   -0.20408E+04   -0.19659E+04  6616   0.167E+02
DAV:   4    -0.149083138157E+04   -0.13802E+03   -0.13571E+03  8064   0.457E+01
DAV:   5    -0.150002762587E+04   -0.91962E+01   -0.91503E+01 11136   0.108E+01    0.183E+02
RMM:   6    -0.116184568574E+04    0.33818E+03   -0.16218E+03  6268   0.355E+01    0.123E+02
RMM:   7    -0.114607230061E+04    0.15773E+02   -0.69781E+01  6394   0.116E+01    0.770E+01
RMM:   8    -0.114962209603E+04   -0.35498E+01   -0.32725E+01  6551   0.644E+00    0.510E+01
RMM:   9    -0.115269220949E+04   -0.30701E+01   -0.18234E+01  6866   0.463E+00    0.313E+01
RMM:  10    -0.115337981359E+04   -0.68760E+00   -0.60467E+00  6554   0.270E+00    0.120E+01
RMM:  11    -0.115411509276E+04   -0.73528E+00   -0.27773E+00  7104   0.180E+00    0.169E+01
RMM:  12    -0.115543110025E+04   -0.13160E+01   -0.10511E+00  7224   0.106E+00    0.116E+01
RMM:  13    -0.115530259101E+04    0.12851E+00   -0.17315E+00  6608   0.127E+00    0.565E+00
RMM:  14    -0.115572751722E+04   -0.42493E+00   -0.45138E-01  7210   0.574E-01    0.402E+00
RMM:  15    -0.115614927410E+04   -0.42176E+00   -0.15408E-01  6921   0.425E-01    0.371E+00
RMM:  16    -0.115643263722E+04   -0.28336E+00   -0.17317E-01  6545   0.446E-01    0.277E+00
RMM:  17    -0.115665890230E+04   -0.22627E+00   -0.25319E-01  6289   0.608E-01    0.152E+00
RMM:  18    -0.115668010945E+04   -0.21207E-01   -0.75221E-02  7281   0.287E-01    0.116E+00
RMM:  19    -0.115668026132E+04   -0.15187E-03   -0.22149E-02  7099   0.153E-01    0.854E-01
RMM:  20    -0.115668466570E+04   -0.44044E-02   -0.17883E-02  6886   0.136E-01    0.549E-01
RMM:  21    -0.115668897863E+04   -0.43129E-02   -0.14708E-02  6545   0.128E-01    0.311E-01
RMM:  22    -0.115669326932E+04   -0.42907E-02   -0.84933E-03  6517   0.890E-02    0.232E-01
RMM:  23    -0.115669679543E+04   -0.35261E-02   -0.39657E-03  5868   0.624E-02    0.189E-01
RMM:  24    -0.115670276042E+04   -0.59650E-02   -0.69891E-03  5664   0.814E-02    0.163E-01
RMM:  25    -0.115670808298E+04   -0.53226E-02   -0.69380E-03  5523   0.823E-02    0.154E-01
RMM:  26    -0.115671432667E+04   -0.62437E-02   -0.96288E-03  5506   0.956E-02    0.144E-01
RMM:  27    -0.115672143812E+04   -0.71114E-02   -0.13973E-02  5546   0.119E-01    0.137E-01
RMM:  28    -0.115672628776E+04   -0.48496E-02   -0.92758E-03  5545   0.851E-02    0.128E-01
RMM:  29    -0.115673181905E+04   -0.55313E-02   -0.10592E-02  5490   0.103E-01    0.123E-01
RMM:  30    -0.115673627202E+04   -0.44530E-02   -0.90493E-03  5447   0.918E-02    0.119E-01
RMM:  31    -0.115673465836E+04    0.16137E-02   -0.82301E-02  6000   0.322E-01    0.315E-01
RMM:  32    -0.115674141056E+04   -0.67522E-02   -0.17022E-02  5771   0.175E-01    0.148E-01
RMM:  33    -0.115674758020E+04   -0.61696E-02   -0.87550E-03  5464   0.104E-01    0.746E-02
RMM:  34    -0.115674966259E+04   -0.20824E-02   -0.67626E-03  5355   0.711E-02    0.694E-02
RMM:  35    -0.115675183993E+04   -0.21773E-02   -0.16102E-02  5516   0.132E-01    0.636E-02
RMM:  36    -0.115675297551E+04   -0.11356E-02   -0.33118E-03  5145   0.487E-02    0.516E-02
RMM:  37    -0.115675382518E+04   -0.84967E-03   -0.56903E-03  5200   0.731E-02    0.327E-02
RMM:  38    -0.115675417555E+04   -0.35036E-03   -0.10902E-03  4650   0.269E-02    0.208E-02
RMM:  39    -0.115675435644E+04   -0.18090E-03   -0.14761E-03  4540   0.367E-02    0.143E-02
RMM:  40    -0.115675445415E+04   -0.97707E-04   -0.53734E-04  4174   0.195E-02
   1 F= -.11567545E+04 E0= -.11567545E+04  d E =-.115675E+04  mag=    10.0000
       N       E                     dE             d eps       ncg     rms          rms(c)
DAV:   1    -0.112958428560E+04    0.27170E+02   -0.21430E+03  6344   0.460E+01    0.317E+01
RMM:   2    -0.114889970457E+04   -0.19315E+02   -0.20775E+02  6225   0.118E+01    0.195E+01
RMM:   3    -0.114764711809E+04    0.12526E+01   -0.13175E+01  6448   0.424E+00    0.145E+01
RMM:   4    -0.114776829506E+04   -0.12118E+00   -0.38308E+00  7492   0.135E+00    0.748E+00
RMM:   5    -0.114799062370E+04   -0.22233E+00   -0.12734E+00  7311   0.766E-01    0.314E+00
RMM:   6    -0.114792713216E+04    0.63492E-01   -0.41512E-01  7571   0.439E-01    0.207E+00
RMM:   7    -0.114793963004E+04   -0.12498E-01   -0.75629E-02  8726   0.191E-01    0.138E+00
RMM:   8    -0.114794852286E+04   -0.88928E-02   -0.32806E-02  8452   0.119E-01    0.743E-01
RMM:   9    -0.114795141320E+04   -0.28903E-02   -0.15929E-02  8358   0.801E-02    0.281E-01
RMM:  10    -0.114795190436E+04   -0.49116E-03   -0.66162E-03  7559   0.466E-02    0.149E-01
RMM:  11    -0.114795250700E+04   -0.60265E-03   -0.32437E-03  6662   0.322E-02    0.861E-02
RMM:  12    -0.114795301832E+04   -0.51132E-03   -0.18671E-03  5800   0.254E-02    0.487E-02
RMM:  13    -0.114795334730E+04   -0.32898E-03   -0.11632E-03  5183   0.198E-02    0.429E-02
RMM:  14    -0.114795354129E+04   -0.19399E-03   -0.63657E-04  4764   0.153E-02    0.347E-02
RMM:  15    -0.114795377286E+04   -0.23157E-03   -0.51910E-04  4709   0.142E-02    0.323E-02
RMM:  16    -0.114795412906E+04   -0.35620E-03   -0.86159E-04  4945   0.183E-02    0.266E-02
RMM:  17    -0.114795437289E+04   -0.24383E-03   -0.79922E-04  4780   0.178E-02    0.217E-02
RMM:  18    -0.114795447859E+04   -0.10570E-03   -0.37848E-04  4353   0.127E-02    0.178E-02
RMM:  19    -0.114795459460E+04   -0.11601E-03   -0.63849E-04  4557   0.153E-02    0.121E-02
RMM:  20    -0.114795462180E+04   -0.27201E-04   -0.25195E-04  4112   0.113E-02
   2 F= -.11479546E+04 E0= -.11479546E+04  d E =0.879983E+01  mag=    10.0000
       N       E                     dE             d eps       ncg     rms          rms(c)
DAV:   1    -0.113508154303E+04    0.12873E+02   -0.13645E+03  6144   0.197E+01    0.312E+01
RMM:   2    -0.116177695934E+04   -0.26695E+02   -0.29351E+02  6219   0.112E+01    0.330E+01
RMM:   3    -0.115667603321E+04    0.51009E+01   -0.21197E+01  6381   0.327E+00    0.272E+01
RMM:   4    -0.115195635738E+04    0.47197E+01   -0.25298E+00  6476   0.129E+00    0.182E+01
RMM:   5    -0.115665922686E+04   -0.47029E+01   -0.17529E+01  6179   0.318E+00    0.247E+01
RMM:   6    -0.115192474791E+04    0.47345E+01   -0.15106E+00  6306   0.124E+00    0.965E+00
RMM:   7    -0.115161718985E+04    0.30756E+00   -0.14046E+00  6657   0.956E-01    0.529E+00
RMM:   8    -0.115166849248E+04   -0.51303E-01   -0.48184E-01  6764   0.654E-01    0.245E+00
RMM:   9    -0.115178870788E+04   -0.12022E+00   -0.12264E-01  6594   0.333E-01    0.198E+00
RMM:  10    -0.115186542922E+04   -0.76721E-01   -0.38081E-02  7083   0.169E-01    0.186E+00
RMM:  11    -0.115197497691E+04   -0.10955E+00   -0.95402E-02  6125   0.286E-01    0.122E+00
RMM:  12    -0.115200342059E+04   -0.28444E-01   -0.40583E-02  6665   0.192E-01    0.649E-01
RMM:  13    -0.115201976519E+04   -0.16345E-01   -0.12444E-02  6342   0.108E-01    0.428E-01
RMM:  14    -0.115202723555E+04   -0.74704E-02   -0.41501E-03  6073   0.614E-02    0.322E-01
RMM:  15    -0.115203399913E+04   -0.67636E-02   -0.35518E-03  5858   0.548E-02    0.241E-01
RMM:  16    -0.115203987790E+04   -0.58788E-02   -0.32411E-03  5508   0.520E-02    0.174E-01
RMM:  17    -0.115204313387E+04   -0.32560E-02   -0.22902E-03  5407   0.425E-02    0.136E-01
RMM:  18    -0.115204512976E+04   -0.19959E-02   -0.15026E-03  4946   0.356E-02    0.103E-01
RMM:  19    -0.115204623358E+04   -0.11038E-02   -0.11914E-03  5002   0.302E-02    0.647E-02
RMM:  20    -0.115204684714E+04   -0.61356E-03   -0.77527E-04  4493   0.262E-02    0.432E-02
RMM:  21    -0.115204711844E+04   -0.27130E-03   -0.46654E-04  4206   0.193E-02    0.317E-02
RMM:  22    -0.115204722132E+04   -0.10288E-03   -0.28207E-04  4002   0.157E-02    0.199E-02
RMM:  23    -0.115204723897E+04   -0.17657E-04   -0.18012E-04  3838   0.127E-02
   3 F= -.11520472E+04 E0= -.11520472E+04  d E =-.409262E+01  mag=     9.9997
       N       E                     dE             d eps       ncg     rms          rms(c)
DAV:   1    -0.115066754227E+04    0.13797E+01   -0.83396E+02  6176   0.298E+01    0.104E+01
RMM:   2    -0.115506981986E+04   -0.44023E+01   -0.55747E+01  6149   0.755E+00    0.119E+01
RMM:   3    -0.115474845780E+04    0.32136E+00   -0.22733E+00  6564   0.208E+00    0.964E+00
RMM:   4    -0.115458030374E+04    0.16815E+00   -0.92207E-01  6794   0.783E-01    0.738E+00
RMM:   5    -0.115451298954E+04    0.67314E-01   -0.41049E-01  6414   0.557E-01    0.254E+00
RMM:   6    -0.115445958587E+04    0.53404E-01   -0.16197E-01  6991   0.345E-01    0.138E+00
RMM:   7    -0.115445043752E+04    0.91483E-02   -0.54064E-02  7432   0.173E-01    0.588E-01
RMM:   8    -0.115445226463E+04   -0.18271E-02   -0.54286E-03  7092   0.759E-02    0.411E-01
RMM:   9    -0.115445468788E+04   -0.24232E-02   -0.60369E-03  6539   0.603E-02    0.247E-01
RMM:  10    -0.115445594686E+04   -0.12590E-02   -0.16731E-03  5861   0.385E-02    0.139E-01
RMM:  11    -0.115445716860E+04   -0.12217E-02   -0.86997E-04  5256   0.251E-02    0.105E-01
RMM:  12    -0.115445856153E+04   -0.13929E-02   -0.10113E-03  5152   0.277E-02    0.863E-02
RMM:  13    -0.115445954483E+04   -0.98330E-03   -0.11268E-03  5098   0.278E-02    0.641E-02
RMM:  14    -0.115446028603E+04   -0.74120E-03   -0.15352E-03  5333   0.324E-02    0.385E-02
RMM:  15    -0.115446049496E+04   -0.20894E-03   -0.66416E-04  4709   0.227E-02    0.230E-02
RMM:  16    -0.115446055702E+04   -0.62055E-04   -0.22804E-04  4062   0.145E-02
   4 F= -.11544606E+04 E0= -.11544606E+04  d E =-.241332E+01  mag=    10.0000
       N       E                     dE             d eps       ncg     rms          rms(c)
DAV:   1    -0.115606681795E+04   -0.16063E+01   -0.11747E+02  6352   0.109E+01    0.495E+00
RMM:   2    -0.115618587349E+04   -0.11906E+00   -0.41514E+00  6147   0.232E+00    0.383E+00
RMM:   3    -0.115612528750E+04    0.60586E-01   -0.27650E-01  6326   0.778E-01    0.253E+00
RMM:   4    -0.115607213206E+04    0.53155E-01   -0.19502E-01  6516   0.432E-01    0.141E+00
RMM:   5    -0.115606142314E+04    0.10709E-01   -0.51857E-02  6323   0.254E-01    0.913E-01
RMM:   6    -0.115606050362E+04    0.91952E-03   -0.17817E-02  7547   0.109E-01    0.465E-01
RMM:   7    -0.115606241610E+04   -0.19125E-02   -0.28815E-03  7255   0.490E-02    0.371E-01
RMM:   8    -0.115606479345E+04   -0.23773E-02   -0.23191E-03  6544   0.436E-02    0.201E-01
RMM:   9    -0.115606659590E+04   -0.18024E-02   -0.12492E-03  5896   0.324E-02    0.133E-01
RMM:  10    -0.115606764052E+04   -0.10446E-02   -0.63602E-04  5069   0.226E-02    0.115E-01
RMM:  11    -0.115606968761E+04   -0.20471E-02   -0.20598E-03  5727   0.391E-02    0.831E-02
RMM:  12    -0.115607103829E+04   -0.13507E-02   -0.27910E-03  5781   0.466E-02    0.447E-02
RMM:  13    -0.115607129573E+04   -0.25744E-03   -0.59154E-04  4518   0.221E-02    0.342E-02
RMM:  14    -0.115607145725E+04   -0.16152E-03   -0.38298E-04  4356   0.179E-02    0.214E-02
RMM:  15    -0.115607151289E+04   -0.55640E-04   -0.14876E-04  3883   0.134E-02
   5 F= -.11560715E+04 E0= -.11560715E+04  d E =-.161096E+01  mag=    10.0000
       N       E                     dE             d eps       ncg     rms          rms(c)
DAV:   1    -0.115677968880E+04   -0.70823E+00   -0.10920E+02  6272   0.101E+01    0.346E+00
RMM:   2    -0.115704622830E+04   -0.26654E+00   -0.28774E+00  6151   0.187E+00    0.295E+00
RMM:   3    -0.115704982753E+04   -0.35992E-02   -0.15369E-01  6417   0.580E-01    0.186E+00
RMM:   4    -0.115704022695E+04    0.96006E-02   -0.65415E-02  6483   0.247E-01    0.984E-01
RMM:   5    -0.115703690908E+04    0.33179E-02   -0.12428E-02  6267   0.136E-01    0.279E-01
RMM:   6    -0.115703727139E+04   -0.36231E-03   -0.27283E-03  6930   0.445E-02    0.166E-01
RMM:   7    -0.115703740842E+04   -0.13703E-03   -0.75627E-04  5878   0.235E-02    0.975E-02
RMM:   8    -0.115703762811E+04   -0.21969E-03   -0.30962E-04  4634   0.191E-02    0.452E-02
RMM:   9    -0.115703770696E+04   -0.78842E-04   -0.11535E-04  4120   0.125E-02
   6 F= -.11570377E+04 E0= -.11570377E+04  d E =-.966194E+00  mag=    10.0000
       N       E                     dE             d eps       ncg     rms          rms(c)
DAV:   1    -0.115761173879E+04   -0.57411E+00   -0.12503E+02  6256   0.986E+00    0.368E+00
RMM:   2    -0.115795538992E+04   -0.34365E+00   -0.34867E+00  6175   0.181E+00    0.274E+00
RMM:   3    -0.115795653206E+04   -0.11421E-02   -0.18027E-01  6305   0.565E-01    0.163E+00
RMM:   4    -0.115794508543E+04    0.11447E-01   -0.63719E-02  6679   0.228E-01    0.848E-01
RMM:   5    -0.115794347411E+04    0.16113E-02   -0.12248E-02  6855   0.110E-01    0.376E-01
RMM:   6    -0.115794351718E+04   -0.43062E-04   -0.20127E-03  7024   0.401E-02    0.182E-01
RMM:   7    -0.115794353453E+04   -0.17351E-04   -0.61406E-04  5798   0.215E-02    0.938E-02
RMM:   8    -0.115794356368E+04   -0.29151E-04   -0.23997E-04  4500   0.164E-02
   7 F= -.11579436E+04 E0= -.11579436E+04  d E =-.905857E+00  mag=    10.0000
       N       E                     dE             d eps       ncg     rms          rms(c)
DAV:   1    -0.115833961826E+04   -0.39608E+00   -0.35991E+01  6344   0.520E+00    0.195E+00
RMM:   2    -0.115842296391E+04   -0.83346E-01   -0.90975E-01  6161   0.937E-01    0.138E+00
RMM:   3    -0.115842203817E+04    0.92574E-03   -0.52044E-02  6271   0.292E-01    0.764E-01
RMM:   4    -0.115841980314E+04    0.22350E-02   -0.16884E-02  6765   0.114E-01    0.391E-01
RMM:   5    -0.115841957763E+04    0.22551E-03   -0.29888E-03  6332   0.533E-02    0.138E-01
RMM:   6    -0.115841970466E+04   -0.12703E-03   -0.52039E-04  5075   0.226E-02    0.927E-02
RMM:   7    -0.115841977570E+04   -0.71041E-04   -0.18463E-04  4198   0.141E-02    0.572E-02
RMM:   8    -0.115841981879E+04   -0.43088E-04   -0.90494E-05  3963   0.109E-02
   8 F= -.11584198E+04 E0= -.11584198E+04  d E =-.476255E+00  mag=    10.0000
       N       E                     dE             d eps       ncg     rms          rms(c)
DAV:   1    -0.115860774449E+04   -0.18797E+00   -0.72223E+00  6432   0.243E+00    0.107E+00
RMM:   2    -0.115862678122E+04   -0.19037E-01   -0.17872E-01  6159   0.437E-01    0.657E-01
RMM:   3    -0.115862762807E+04   -0.84684E-03   -0.11235E-02  6233   0.143E-01    0.374E-01
RMM:   4    -0.115862747422E+04    0.15385E-03   -0.36430E-03  6261   0.571E-02    0.158E-01
RMM:   5    -0.115862758128E+04   -0.10706E-03   -0.69360E-04  5172   0.291E-02    0.109E-01
RMM:   6    -0.115862764190E+04   -0.60618E-04   -0.16148E-04  4000   0.127E-02    0.532E-02
RMM:   7    -0.115862769027E+04   -0.48374E-04   -0.69843E-05  3764   0.101E-02    0.289E-02
RMM:   8    -0.115862772792E+04   -0.37655E-04   -0.51241E-05  3697   0.860E-03
   9 F= -.11586277E+04 E0= -.11586277E+04  d E =-.207909E+00  mag=    10.0000
       N       E                     dE             d eps       ncg     rms          rms(c)
DAV:   1    -0.114179586779E+04    0.16832E+02   -0.10323E+03  6160   0.286E+01    0.205E+01
RMM:   2    -0.115286117023E+04   -0.11065E+02   -0.12816E+02  6151   0.808E+00    0.205E+01
RMM:   3    -0.115238316751E+04    0.47800E+00   -0.74565E+00  6314   0.247E+00    0.221E+01
RMM:   4    -0.115477318826E+04   -0.23900E+01   -0.70333E+00  8314   0.102E+00    0.327E+01
RMM:   5    -0.115237092788E+04    0.24023E+01   -0.23338E+01  6150   0.385E+00    0.920E+00
RMM:   6    -0.115149240433E+04    0.87852E+00   -0.19633E+00  6227   0.127E+00    0.187E+00
RMM:   7    -0.115154329805E+04   -0.50894E-01   -0.65763E-01  7245   0.415E-01    0.234E+00
RMM:   8    -0.115152365068E+04    0.19647E-01   -0.28304E-02  7031   0.122E-01    0.105E+00
RMM:   9    -0.115152059940E+04    0.30513E-02   -0.22406E-02  7397   0.860E-02    0.383E-01
RMM:  10    -0.115152112012E+04   -0.52072E-03   -0.40686E-03  6430   0.504E-02    0.126E-01
RMM:  11    -0.115152115686E+04   -0.36739E-04   -0.54818E-04  4574   0.196E-02
  10 F= -.11515212E+04 E0= -.11515212E+04  d E =0.710657E+01  mag=    10.0000
       N       E                     dE             d eps       ncg     rms          rms(c)
DAV:   1    -0.115676871460E+04   -0.52476E+01   -0.81925E+02  6240   0.211E+01    0.244E+01
RMM:   2    -0.115892578374E+04   -0.21571E+01   -0.43146E+01  6146   0.708E+00    0.200E+01
RMM:   3    -0.115901712181E+04   -0.91338E-01   -0.25313E+00  6681   0.217E+00    0.120E+01
RMM:   4    -0.115915382908E+04   -0.13671E+00   -0.15895E+00  6861   0.942E-01    0.456E+00
RMM:   5    -0.115907587924E+04    0.77950E-01   -0.31304E-01  7625   0.472E-01    0.119E+00
RMM:   6    -0.115906933256E+04    0.65467E-02   -0.78272E-02  8354   0.226E-01    0.622E-01
RMM:   7    -0.115906956150E+04   -0.22894E-03   -0.14322E-02  8863   0.911E-02    0.394E-01
RMM:   8    -0.115907017682E+04   -0.61531E-03   -0.65444E-03  8381   0.548E-02    0.123E-01
RMM:   9    -0.115907053400E+04   -0.35719E-03   -0.30862E-03  6963   0.315E-02    0.675E-02
RMM:  10    -0.115907068416E+04   -0.15016E-03   -0.14758E-03  5689   0.226E-02    0.483E-02
RMM:  11    -0.115907078723E+04   -0.10307E-03   -0.93005E-04  5148   0.180E-02    0.326E-02
RMM:  12    -0.115907085055E+04   -0.63322E-04   -0.55288E-04  4819   0.149E-02
  11 F= -.11590709E+04 E0= -.11590709E+04  d E =-.754969E+01  mag=    10.0000
       N       E                     dE             d eps       ncg     rms          rms(c)
DAV:   1    -0.115912612344E+04   -0.55336E-01   -0.53878E+00  6464   0.265E+00    0.850E-01
RMM:   2    -0.115913935957E+04   -0.13236E-01   -0.15010E-01  6161   0.501E-01    0.596E-01
RMM:   3    -0.115913968266E+04   -0.32309E-03   -0.86090E-03  6481   0.158E-01    0.381E-01
RMM:   4    -0.115913901780E+04    0.66486E-03   -0.27285E-03  6784   0.565E-02    0.188E-01
RMM:   5    -0.115913892436E+04    0.93443E-04   -0.79173E-04  5637   0.310E-02    0.112E-01
RMM:   6    -0.115913893940E+04   -0.15042E-04   -0.13656E-04  4023   0.158E-02    0.590E-02
RMM:   7    -0.115913894883E+04   -0.94234E-05   -0.55954E-05  3735   0.106E-02    0.305E-02
RMM:   8    -0.115913896012E+04   -0.11297E-04   -0.42055E-05  3642   0.888E-03
  12 F= -.11591390E+04 E0= -.11591390E+04  d E =-.681096E-01  mag=    10.0000
       N       E                     dE             d eps       ncg     rms          rms(c)
DAV:   1    -0.115916322310E+04   -0.24274E-01   -0.10102E+00  6672   0.113E+00    0.400E-01
RMM:   2    -0.115916561189E+04   -0.23888E-02   -0.28520E-02  6143   0.216E-01    0.311E-01
RMM:   3    -0.115916563287E+04   -0.20976E-04   -0.16898E-03  6291   0.692E-02    0.196E-01
RMM:   4    -0.115916544283E+04    0.19004E-03   -0.68143E-04  5384   0.286E-02    0.101E-01
RMM:   5    -0.115916542061E+04    0.22219E-04   -0.13979E-04  4039   0.174E-02    0.484E-02
RMM:   6    -0.115916542381E+04   -0.32018E-05   -0.38593E-05  3588   0.946E-03    0.213E-02
RMM:   7    -0.115916542538E+04   -0.15665E-05   -0.18829E-05  3472   0.667E-03    0.182E-02
RMM:   8    -0.115916542688E+04   -0.14983E-05   -0.11493E-05  3360   0.506E-03
  13 F= -.11591654E+04 E0= -.11591654E+04  d E =-.264668E-01  mag=    10.0000
       N       E                     dE             d eps       ncg     rms          rms(c)
DAV:   1    -0.115907293959E+04    0.92486E-01   -0.51164E+01  6144   0.659E+00    0.386E+00
RMM:   2    -0.115922592130E+04   -0.15298E+00   -0.18915E+00  6153   0.141E+00    0.347E+00
RMM:   3    -0.115921419062E+04    0.11731E-01   -0.11985E-01  6703   0.408E-01    0.240E+00
RMM:   4    -0.115920853630E+04    0.56543E-02   -0.87475E-02  6294   0.288E-01    0.644E-01
RMM:   5    -0.115920708457E+04    0.14517E-02   -0.12480E-02  6631   0.128E-01    0.325E-01
RMM:   6    -0.115920741160E+04   -0.32704E-03   -0.30615E-03  7457   0.446E-02    0.182E-01
RMM:   7    -0.115920755302E+04   -0.14142E-03   -0.73933E-04  6128   0.267E-02    0.113E-01
RMM:   8    -0.115920763932E+04   -0.86303E-04   -0.25206E-04  4822   0.162E-02
  14 F= -.11592076E+04 E0= -.11592076E+04  d E =-.422124E-01  mag=    10.0000
       N       E                     dE             d eps       ncg     rms          rms(c)
DAV:   1    -0.115925878734E+04   -0.51234E-01   -0.14015E+01  6296   0.379E+00    0.230E+00
RMM:   2    -0.115929571825E+04   -0.36931E-01   -0.55392E-01  6150   0.826E-01    0.217E+00
RMM:   3    -0.115929131549E+04    0.44028E-02   -0.31182E-02  6551   0.225E-01    0.151E+00
RMM:   4    -0.115928776573E+04    0.35498E-02   -0.26952E-02  6317   0.163E-01    0.406E-01
RMM:   5    -0.115928722584E+04    0.53989E-03   -0.36231E-03  5909   0.758E-02    0.203E-01
RMM:   6    -0.115928726893E+04   -0.43091E-04   -0.59725E-04  5623   0.226E-02    0.129E-01
RMM:   7    -0.115928730438E+04   -0.35448E-04   -0.14692E-04  4170   0.147E-02    0.748E-02
RMM:   8    -0.115928733904E+04   -0.34662E-04   -0.84033E-05  3921   0.123E-02
  15 F= -.11592873E+04 E0= -.11592873E+04  d E =-.796997E-01  mag=    10.0000
       N       E                     dE             d eps       ncg     rms          rms(c)
DAV:   1    -0.115929508868E+04   -0.77843E-02   -0.26867E+00  6368   0.185E+00    0.639E-01
RMM:   2    -0.115930181914E+04   -0.67305E-02   -0.77669E-02  6155   0.357E-01    0.537E-01
RMM:   3    -0.115930186879E+04   -0.49647E-04   -0.44167E-03  6507   0.109E-01    0.337E-01
RMM:   4    -0.115930138500E+04    0.48378E-03   -0.15668E-03  6107   0.422E-02    0.159E-01
RMM:   5    -0.115930131261E+04    0.72392E-04   -0.46306E-04  5099   0.257E-02    0.116E-01
RMM:   6    -0.115930131100E+04    0.16089E-05   -0.82028E-05  3777   0.134E-02    0.408E-02
RMM:   7    -0.115930131241E+04   -0.14036E-05   -0.34498E-05  3592   0.861E-03    0.250E-02
RMM:   8    -0.115930131580E+04   -0.33910E-05   -0.23835E-05  3517   0.718E-03
  16 F= -.11593013E+04 E0= -.11593013E+04  d E =-.139768E-01  mag=    10.0000
       N       E                     dE             d eps       ncg     rms          rms(c)
DAV:   1    -0.115930464545E+04   -0.33330E-02   -0.78255E-01  6480   0.103E+00    0.302E-01
RMM:   2    -0.115930643670E+04   -0.17912E-02   -0.21515E-02  6156   0.187E-01    0.235E-01
RMM:   3    -0.115930643479E+04    0.19127E-05   -0.11921E-03  6165   0.618E-02    0.148E-01
RMM:   4    -0.115930631414E+04    0.12065E-03   -0.42054E-04  5041   0.232E-02    0.763E-02
RMM:   5    -0.115930629575E+04    0.18390E-04   -0.10358E-04  3829   0.155E-02    0.374E-02
RMM:   6    -0.115930629860E+04   -0.28538E-05   -0.31583E-05  3523   0.874E-03    0.145E-02
RMM:   7    -0.115930629983E+04   -0.12306E-05   -0.16639E-05  3373   0.610E-03    0.128E-02
RMM:   8    -0.115930630089E+04   -0.10552E-05   -0.10116E-05  3241   0.479E-03
  17 F= -.11593063E+04 E0= -.11593063E+04  d E =-.498509E-02  mag=    10.0000
       N       E                     dE             d eps       ncg     rms          rms(c)
DAV:   1    -0.115930834410E+04   -0.20443E-02   -0.15907E+00  6448   0.146E+00    0.374E-01
RMM:   2    -0.115931254173E+04   -0.41976E-02   -0.39022E-02  6224   0.249E-01    0.231E-01
RMM:   3    -0.115931270374E+04   -0.16201E-03   -0.20356E-03  6194   0.857E-02    0.128E-01
RMM:   4    -0.115931260165E+04    0.10209E-03   -0.51735E-04  5264   0.263E-02    0.659E-02
RMM:   5    -0.115931258600E+04    0.15654E-04   -0.13899E-04  3707   0.169E-02    0.617E-02
RMM:   6    -0.115931259163E+04   -0.56371E-05   -0.54176E-05  3545   0.113E-02    0.156E-02
RMM:   7    -0.115931259459E+04   -0.29600E-05   -0.27240E-05  3441   0.800E-03    0.147E-02
RMM:   8    -0.115931259652E+04   -0.19261E-05   -0.18027E-05  3297   0.629E-03
  18 F= -.11593126E+04 E0= -.11593126E+04  d E =-.629563E-02  mag=    10.0000
       N       E                     dE             d eps       ncg     rms          rms(c)
DAV:   1    -0.115931105668E+04    0.15379E-02   -0.48153E+00  6352   0.256E+00    0.522E-01
RMM:   2    -0.115932219052E+04   -0.11134E-01   -0.11701E-01  6193   0.427E-01    0.316E-01
RMM:   3    -0.115932232867E+04   -0.13815E-03   -0.61209E-03  6258   0.152E-01    0.195E-01
RMM:   4    -0.115932210428E+04    0.22439E-03   -0.16043E-03  7510   0.445E-02    0.108E-01
RMM:   5    -0.115932207477E+04    0.29512E-04   -0.47148E-04  5256   0.219E-02    0.849E-02
RMM:   6    -0.115932208048E+04   -0.57168E-05   -0.99547E-05  3665   0.136E-02    0.191E-02
RMM:   7    -0.115932208588E+04   -0.53949E-05   -0.47575E-05  3558   0.104E-02    0.136E-02
RMM:   8    -0.115932208995E+04   -0.40679E-05   -0.36070E-05  3448   0.765E-03
  19 F= -.11593221E+04 E0= -.11593221E+04  d E =-.949343E-02  mag=    10.0000
       N       E                     dE             d eps       ncg     rms          rms(c)
DAV:   1    -0.115931769592E+04    0.43900E-02   -0.61935E+00  6320   0.290E+00    0.543E-01
RMM:   2    -0.115933148896E+04   -0.13793E-01   -0.14989E-01  6199   0.481E-01    0.324E-01
RMM:   3    -0.115933150542E+04   -0.16461E-04   -0.78357E-03  6268   0.173E-01    0.210E-01
RMM:   4    -0.115933122646E+04    0.27896E-03   -0.21578E-03  7780   0.509E-02    0.110E-01
RMM:   5    -0.115933122236E+04    0.40935E-05   -0.55980E-04  5752   0.224E-02    0.415E-02
RMM:   6    -0.115933122849E+04   -0.61251E-05   -0.94234E-05  3732   0.133E-02    0.198E-02
RMM:   7    -0.115933123509E+04   -0.66010E-05   -0.63494E-05  3616   0.106E-02    0.122E-02
RMM:   8    -0.115933124008E+04   -0.49926E-05   -0.45114E-05  3470   0.837E-03
  20 F= -.11593312E+04 E0= -.11593312E+04  d E =-.915014E-02  mag=    10.0000
       N       E                     dE             d eps       ncg     rms          rms(c)
DAV:   1    -0.115933116994E+04    0.65147E-04   -0.24711E+00  6288   0.183E+00    0.318E-01
RMM:   2    -0.115933666093E+04   -0.54910E-02   -0.60125E-02  6248   0.303E-01    0.189E-01
RMM:   3    -0.115933662343E+04    0.37504E-04   -0.30361E-03  6260   0.105E-01    0.123E-01
RMM:   4    -0.115933651170E+04    0.11172E-03   -0.82006E-04  6386   0.320E-02    0.609E-02
RMM:   5    -0.115933651450E+04   -0.27954E-05   -0.19119E-04  3933   0.171E-02    0.235E-02
RMM:   6    -0.115933652033E+04   -0.58311E-05   -0.53997E-05  3552   0.113E-02    0.144E-02
RMM:   7    -0.115933652488E+04   -0.45481E-05   -0.38470E-05  3446   0.857E-03    0.956E-03
RMM:   8    -0.115933652836E+04   -0.34835E-05   -0.24587E-05  3331   0.722E-03
  21 F= -.11593365E+04 E0= -.11593365E+04  d E =-.528828E-02  mag=    10.0000
       N       E                     dE             d eps       ncg     rms          rms(c)
DAV:   1    -0.115933649989E+04    0.24992E-04   -0.21899E+00  6312   0.171E+00    0.287E-01
RMM:   2    -0.115934129236E+04   -0.47925E-02   -0.52642E-02  6236   0.284E-01    0.170E-01
RMM:   3    -0.115934126461E+04    0.27749E-04   -0.27132E-03  6189   0.101E-01    0.112E-01
RMM:   4    -0.115934116992E+04    0.94684E-04   -0.72797E-04  6125   0.307E-02    0.580E-02
RMM:   5    -0.115934117054E+04   -0.62094E-06   -0.15194E-04  3757   0.163E-02    0.203E-02
RMM:   6    -0.115934117685E+04   -0.63048E-05   -0.50302E-05  3538   0.107E-02    0.132E-02
RMM:   7    -0.115934118082E+04   -0.39706E-05   -0.33012E-05  3425   0.806E-03    0.902E-03
RMM:   8    -0.115934118393E+04   -0.31093E-05   -0.21121E-05  3277   0.685E-03
  22 F= -.11593412E+04 E0= -.11593412E+04  d E =-.465557E-02  mag=    10.0000
       N       E                     dE             d eps       ncg     rms          rms(c)
DAV:   1    -0.115933958323E+04    0.15976E-02   -0.31245E+00  6352   0.205E+00    0.340E-01
RMM:   2    -0.115934645654E+04   -0.68733E-02   -0.75142E-02  6235   0.340E-01    0.197E-01
RMM:   3    -0.115934642551E+04    0.31027E-04   -0.38534E-03  6222   0.120E-01    0.131E-01
RMM:   4    -0.115934629832E+04    0.12719E-03   -0.10239E-03  6593   0.360E-02    0.671E-02
RMM:   5    -0.115934629952E+04   -0.11995E-05   -0.22744E-04  4085   0.178E-02    0.187E-02
RMM:   6    -0.115934630589E+04   -0.63635E-05   -0.57228E-05  3561   0.116E-02    0.119E-02
RMM:   7    -0.115934631118E+04   -0.52945E-05   -0.41932E-05  3475   0.874E-03    0.876E-03
RMM:   8    -0.115934631465E+04   -0.34718E-05   -0.24811E-05  3294   0.723E-03
  23 F= -.11593463E+04 E0= -.11593463E+04  d E =-.513072E-02  mag=    10.0000
       N       E                     dE             d eps       ncg     rms          rms(c)
DAV:   1    -0.115934478142E+04    0.15298E-02   -0.27961E+00  6360   0.193E+00    0.330E-01
RMM:   2    -0.115935101804E+04   -0.62366E-02   -0.67191E-02  6280   0.321E-01    0.193E-01
RMM:   3    -0.115935099137E+04    0.26668E-04   -0.33627E-03  6288   0.110E-01    0.126E-01
RMM:   4    -0.115935087223E+04    0.11914E-03   -0.83490E-04  6329   0.332E-02    0.672E-02
RMM:   5    -0.115935087231E+04   -0.76325E-07   -0.21622E-04  4024   0.182E-02    0.181E-02
RMM:   6    -0.115935087888E+04   -0.65725E-05   -0.53898E-05  3551   0.118E-02    0.109E-02
RMM:   7    -0.115935088394E+04   -0.50545E-05   -0.39671E-05  3463   0.842E-03    0.791E-03
RMM:   8    -0.115935088721E+04   -0.32756E-05   -0.23729E-05  3296   0.741E-03
  24 F= -.11593509E+04 E0= -.11593509E+04  d E =-.457256E-02  mag=    10.0000
       N       E                     dE             d eps       ncg     rms          rms(c)
DAV:   1    -0.115934997261E+04    0.91133E-03   -0.19778E+00  6392   0.162E+00    0.271E-01
RMM:   2    -0.115935436813E+04   -0.43955E-02   -0.47473E-02  6261   0.269E-01    0.157E-01
RMM:   3    -0.115935434889E+04    0.19247E-04   -0.24127E-03  6200   0.940E-02    0.103E-01
RMM:   4    -0.115935426451E+04    0.84382E-04   -0.61108E-04  5784   0.284E-02    0.548E-02
RMM:   5    -0.115935426514E+04   -0.63681E-06   -0.14575E-04  3738   0.162E-02    0.169E-02
RMM:   6    -0.115935427131E+04   -0.61675E-05   -0.46002E-05  3537   0.105E-02    0.109E-02
RMM:   7    -0.115935427517E+04   -0.38600E-05   -0.29924E-05  3422   0.776E-03    0.805E-03
RMM:   8    -0.115935427819E+04   -0.30232E-05   -0.18970E-05  3285   0.653E-03
  25 F= -.11593543E+04 E0= -.11593543E+04  d E =-.339098E-02  mag=    10.0000
       N       E                     dE             d eps       ncg     rms          rms(c)
DAV:   1    -0.115935382878E+04    0.44639E-03   -0.15387E+00  6400   0.143E+00    0.239E-01
RMM:   2    -0.115935724433E+04   -0.34155E-02   -0.36900E-02  6273   0.238E-01    0.136E-01
RMM:   3    -0.115935722443E+04    0.19899E-04   -0.18591E-03  6101   0.825E-02    0.897E-02
RMM:   4    -0.115935715818E+04    0.66246E-04   -0.47067E-04  5153   0.252E-02    0.459E-02
RMM:   5    -0.115935716034E+04   -0.21574E-05   -0.10307E-04  3614   0.147E-02    0.172E-02
RMM:   6    -0.115935716574E+04   -0.54029E-05   -0.38555E-05  3510   0.939E-03    0.114E-02
RMM:   7    -0.115935716898E+04   -0.32430E-05   -0.24189E-05  3372   0.707E-03    0.714E-03
RMM:   8    -0.115935717172E+04   -0.27334E-05   -0.15807E-05  3266   0.593E-03
  26 F= -.11593572E+04 E0= -.11593572E+04  d E =-.289352E-02  mag=    10.0000
       N       E                     dE             d eps       ncg     rms          rms(c)
DAV:   1    -0.115935788084E+04   -0.71186E-03   -0.46888E-01  6408   0.789E-01    0.136E-01
RMM:   2    -0.115935893947E+04   -0.10586E-02   -0.11410E-02  6323   0.133E-01    0.790E-02
RMM:   3    -0.115935892548E+04    0.13984E-04   -0.53161E-04  4732   0.443E-02    0.520E-02
RMM:   4    -0.115935890364E+04    0.21838E-04   -0.13031E-04  3625   0.149E-02    0.268E-02
RMM:   5    -0.115935890741E+04   -0.37621E-05   -0.42548E-05  3504   0.970E-03    0.828E-03
RMM:   6    -0.115935891017E+04   -0.27668E-05   -0.18592E-05  3389   0.631E-03    0.621E-03
RMM:   7    -0.115935891178E+04   -0.16096E-05   -0.11034E-05  3138   0.487E-03    0.461E-03
RMM:   8    -0.115935891336E+04   -0.15771E-05   -0.74622E-06  2774   0.407E-03
  27 F= -.11593589E+04 E0= -.11593589E+04  d E =-.174164E-02  mag=    10.0000
