       N       E                     dE             d eps       ncg     rms          rms(c)
DAV:   1    -0.115983496703E+04   -0.11598E+04   -0.14920E-05  3808   0.974E-03    0.166E-02
RMM:   2    -0.115983496716E+04   -0.12379E-06   -0.10147E-05  3102   0.555E-03    0.254E-02
RMM:   3    -0.115983496763E+04   -0.47435E-06   -0.47354E-06  2494   0.299E-03    0.246E-03
RMM:   4    -0.115983496792E+04   -0.28282E-06   -0.21024E-06  1849   0.279E-03    0.371E-03
RMM:   5    -0.115983496809E+04   -0.17653E-06   -0.13796E-06  1438   0.222E-03    0.351E-03
RMM:   6    -0.115983496824E+04   -0.14344E-06   -0.69000E-07  1090   0.213E-03    0.214E-03
RMM:   7    -0.115983496841E+04   -0.17493E-06   -0.38540E-07   935   0.192E-03    0.248E-03
RMM:   8    -0.115983496857E+04   -0.15907E-06   -0.32433E-07   852   0.196E-03
   1 F= -.11598350E+04 E0= -.11598350E+04  d E =-.115983E+04  mag=    10.0000
       N       E                     dE             d eps       ncg     rms          rms(c)
DAV:   1    -0.115983520267E+04   -0.23426E-03   -0.21745E-01  6296   0.547E-01    0.146E-01
RMM:   2    -0.115983558973E+04   -0.38706E-03   -0.67520E-03  6148   0.107E-01    0.149E-01
RMM:   3    -0.115983554574E+04    0.43992E-04   -0.27329E-04  4361   0.321E-02    0.104E-01
RMM:   4    -0.115983549859E+04    0.47148E-04   -0.13696E-04  3687   0.151E-02    0.557E-02
RMM:   5    -0.115983548698E+04    0.11612E-04   -0.60821E-05  3568   0.109E-02    0.472E-02
RMM:   6    -0.115983548825E+04   -0.12703E-05   -0.20088E-05  3381   0.732E-03    0.144E-02
RMM:   7    -0.115983548886E+04   -0.61354E-06   -0.84187E-06  2986   0.394E-03    0.117E-02
RMM:   8    -0.115983548929E+04   -0.43344E-06   -0.45718E-06  2813   0.368E-03
   2 F= -.11598355E+04 E0= -.11598355E+04  d E =-.520725E-03  mag=    10.0000
       N       E                     dE             d eps       ncg     rms          rms(c)
DAV:   1    -0.115983581667E+04   -0.32781E-03   -0.49419E-02  6128   0.256E-01    0.774E-02
RMM:   2    -0.115983587284E+04   -0.56165E-04   -0.16715E-03  6028   0.522E-02    0.835E-02
RMM:   3    -0.115983585503E+04    0.17804E-04   -0.59727E-05  3418   0.149E-02    0.586E-02
RMM:   4    -0.115983583631E+04    0.18720E-04   -0.54243E-05  3476   0.864E-03    0.326E-02
RMM:   5    -0.115983583100E+04    0.53074E-05   -0.16523E-05  3170   0.592E-03    0.196E-02
RMM:   6    -0.115983583113E+04   -0.12926E-06   -0.53753E-06  2684   0.339E-03    0.938E-03
RMM:   7    -0.115983583125E+04   -0.11783E-06   -0.19803E-06  1898   0.264E-03    0.636E-03
RMM:   8    -0.115983583137E+04   -0.11627E-06   -0.12644E-06  1571   0.216E-03
   3 F= -.11598358E+04 E0= -.11598358E+04  d E =-.342074E-03  mag=    10.0000
