       N       E                     dE             d eps       ncg     rms          rms(c)
DAV:   1    -0.115963423825E+04   -0.11596E+04   -0.36539E-06  3824   0.273E-03    0.302E-03
RMM:   2    -0.115963423835E+04   -0.10336E-06   -0.88006E-07  1719   0.228E-03    0.357E-03
RMM:   3    -0.115963423837E+04   -0.20023E-07   -0.80846E-08   753   0.160E-03    0.105E-03
RMM:   4    -0.115963423840E+04   -0.30152E-07   -0.54495E-08   641   0.162E-03    0.518E-04
RMM:   5    -0.115963423843E+04   -0.24404E-07   -0.25251E-08   519   0.160E-03    0.486E-04
RMM:   6    -0.115963423845E+04   -0.22075E-07   -0.23322E-08   462   0.161E-03    0.405E-04
RMM:   7    -0.115963423847E+04   -0.16735E-07   -0.27555E-08   426   0.163E-03    0.332E-04
RMM:   8    -0.115963423849E+04   -0.18059E-07   -0.39823E-08   420   0.165E-03
   1 F= -.11596342E+04 E0= -.11596342E+04  d E =-.115963E+04  mag=    10.0000
       N       E                     dE             d eps       ncg     rms          rms(c)
DAV:   1    -0.115963435854E+04   -0.12007E-03   -0.45573E-01  6344   0.786E-01    0.246E-01
RMM:   2    -0.115963531702E+04   -0.95848E-03   -0.15022E-02  6137   0.160E-01    0.263E-01
RMM:   3    -0.115963521598E+04    0.10104E-03   -0.73468E-04  5734   0.492E-02    0.187E-01
RMM:   4    -0.115963509988E+04    0.11609E-03   -0.44314E-04  5263   0.238E-02    0.877E-02
RMM:   5    -0.115963506838E+04    0.31502E-04   -0.11632E-04  4097   0.158E-02    0.295E-02
RMM:   6    -0.115963506804E+04    0.34270E-06   -0.23302E-05  3518   0.816E-03    0.166E-02
RMM:   7    -0.115963506851E+04   -0.46926E-06   -0.10279E-05  3227   0.456E-03    0.131E-02
RMM:   8    -0.115963506902E+04   -0.51642E-06   -0.59566E-06  3180   0.396E-03
   2 F= -.11596351E+04 E0= -.11596351E+04  d E =-.830538E-03  mag=    10.0000
       N       E                     dE             d eps       ncg     rms          rms(c)
DAV:   1    -0.115963575740E+04   -0.68889E-03   -0.10456E-01  6112   0.369E-01    0.136E-01
RMM:   2    -0.115963594636E+04   -0.18896E-03   -0.37070E-03  6112   0.790E-02    0.142E-01
RMM:   3    -0.115963590771E+04    0.38647E-04   -0.15989E-04  3906   0.245E-02    0.100E-01
RMM:   4    -0.115963586558E+04    0.42128E-04   -0.13098E-04  3716   0.141E-02    0.417E-02
RMM:   5    -0.115963586159E+04    0.39959E-05   -0.45292E-05  3465   0.928E-03    0.283E-02
RMM:   6    -0.115963586158E+04    0.12093E-07   -0.11329E-05  3145   0.572E-03    0.132E-02
RMM:   7    -0.115963586179E+04   -0.21822E-06   -0.48699E-06  2454   0.314E-03    0.944E-03
RMM:   8    -0.115963586199E+04   -0.19783E-06   -0.30039E-06  2435   0.300E-03
   3 F= -.11596359E+04 E0= -.11596359E+04  d E =-.792969E-03  mag=    10.0000
       N       E                     dE             d eps       ncg     rms          rms(c)
DAV:   1    -0.115963608060E+04   -0.21881E-03   -0.86201E-02  6192   0.344E-01    0.783E-02
RMM:   2    -0.115963628006E+04   -0.19946E-03   -0.22539E-03  6200   0.607E-02    0.554E-02
RMM:   3    -0.115963627503E+04    0.50352E-05   -0.90416E-05  3485   0.203E-02    0.357E-02
RMM:   4    -0.115963626969E+04    0.53392E-05   -0.38143E-05  3405   0.798E-03    0.192E-02
RMM:   5    -0.115963626992E+04   -0.22701E-06   -0.11254E-05  3243   0.507E-03    0.922E-03
RMM:   6    -0.115963627041E+04   -0.49069E-06   -0.45295E-06  2833   0.332E-03    0.508E-03
RMM:   7    -0.115963627061E+04   -0.20144E-06   -0.18478E-06  1852   0.262E-03    0.289E-03
RMM:   8    -0.115963627074E+04   -0.12835E-06   -0.91551E-07  1419   0.219E-03
   4 F= -.11596363E+04 E0= -.11596363E+04  d E =-.408744E-03  mag=    10.0000
       N       E                     dE             d eps       ncg     rms          rms(c)
DAV:   1    -0.115963645145E+04   -0.18084E-03   -0.36881E-02  6080   0.223E-01    0.497E-02
RMM:   2    -0.115963653234E+04   -0.80889E-04   -0.95645E-04  5992   0.390E-02    0.338E-02
RMM:   3    -0.115963652900E+04    0.33375E-05   -0.41529E-05  3370   0.137E-02    0.212E-02
RMM:   4    -0.115963652615E+04    0.28474E-05   -0.19050E-05  3257   0.540E-03    0.122E-02
RMM:   5    -0.115963652602E+04    0.13805E-06   -0.46542E-06  2685   0.343E-03    0.401E-03
RMM:   6    -0.115963652622E+04   -0.20367E-06   -0.17253E-06  1735   0.237E-03    0.242E-03
RMM:   7    -0.115963652630E+04   -0.75655E-07   -0.66229E-07  1242   0.227E-03    0.130E-03
RMM:   8    -0.115963652632E+04   -0.29191E-07   -0.17501E-07   834   0.197E-03
   5 F= -.11596365E+04 E0= -.11596365E+04  d E =-.255588E-03  mag=    10.0000
