       N       E                     dE             d eps       ncg     rms          rms(c)
DAV:   1     0.119066017676E+05    0.11907E+05   -0.42100E+05 12352   0.131E+03
DAV:   2     0.650596436822E+03   -0.11256E+05   -0.10051E+05 12312   0.375E+02
DAV:   3    -0.135987085754E+04   -0.20105E+04   -0.19366E+04 13168   0.165E+02
DAV:   4    -0.149467603850E+04   -0.13481E+03   -0.13238E+03 16264   0.446E+01
DAV:   5    -0.150329624262E+04   -0.86202E+01   -0.85756E+01 22240   0.102E+01    0.183E+02
RMM:   6    -0.116453054924E+04    0.33877E+03   -0.16004E+03 12511   0.349E+01    0.106E+02
RMM:   7    -0.114971622457E+04    0.14814E+02   -0.64331E+01 12831   0.112E+01    0.651E+01
RMM:   8    -0.115344451511E+04   -0.37283E+01   -0.20723E+01 14153   0.547E+00    0.308E+01
RMM:   9    -0.115690865101E+04   -0.34641E+01   -0.48684E+00 14571   0.233E+00    0.885E+00
RMM:  10    -0.115844560597E+04   -0.15370E+01   -0.16871E+00 14453   0.126E+00    0.603E+00
RMM:  11    -0.115944166937E+04   -0.99606E+00   -0.12690E+00 14677   0.102E+00    0.478E+00
RMM:  12    -0.116007334320E+04   -0.63167E+00   -0.63701E-01 13483   0.756E-01    0.225E+00
RMM:  13    -0.116021059914E+04   -0.13726E+00   -0.20293E-01 15242   0.445E-01    0.148E+00
RMM:  14    -0.116026808367E+04   -0.57485E-01   -0.87983E-02 15082   0.260E-01    0.879E-01
RMM:  15    -0.116029352835E+04   -0.25445E-01   -0.46203E-02 14606   0.200E-01    0.430E-01
RMM:  16    -0.116029756101E+04   -0.40327E-02   -0.13703E-02 15785   0.112E-01    0.246E-01
RMM:  17    -0.116029887391E+04   -0.13129E-02   -0.42334E-03 16047   0.537E-02    0.160E-01
RMM:  18    -0.116029983059E+04   -0.95668E-03   -0.20117E-03 13841   0.386E-02    0.107E-01
RMM:  19    -0.116030052583E+04   -0.69524E-03   -0.11470E-03 12388   0.307E-02    0.816E-02
RMM:  20    -0.116030089132E+04   -0.36548E-03   -0.60626E-04 10524   0.215E-02    0.661E-02
RMM:  21    -0.116030136044E+04   -0.46913E-03   -0.48906E-04 10030   0.202E-02    0.570E-02
RMM:  22    -0.116030201888E+04   -0.65844E-03   -0.69041E-04  9964   0.258E-02    0.511E-02
RMM:  23    -0.116030269952E+04   -0.68063E-03   -0.10181E-03 10203   0.305E-02    0.436E-02
RMM:  24    -0.116030323541E+04   -0.53589E-03   -0.95756E-04 10028   0.289E-02    0.373E-02
RMM:  25    -0.116030383463E+04   -0.59922E-03   -0.17298E-03 10304   0.427E-02    0.321E-02
RMM:  26    -0.116030419755E+04   -0.36292E-03   -0.11861E-03 10036   0.324E-02    0.243E-02
RMM:  27    -0.116030439032E+04   -0.19277E-03   -0.47663E-04  9269   0.209E-02    0.200E-02
RMM:  28    -0.116030452764E+04   -0.13731E-03   -0.50535E-04  9304   0.226E-02    0.180E-02
RMM:  29    -0.116030460426E+04   -0.76623E-04   -0.43948E-04  9074   0.207E-02
   1 F= -.11603046E+04 E0= -.11602958E+04  d E =-.116030E+04  mag=     5.9407
       N       E                     dE             d eps       ncg     rms          rms(c)
DAV:   1    -0.113473093097E+04    0.25574E+02   -0.18951E+03 12696   0.422E+01    0.368E+01
RMM:   2    -0.115530603763E+04   -0.20575E+02   -0.25066E+02 13547   0.115E+01    0.207E+01
RMM:   3    -0.115596338459E+04   -0.65735E+00   -0.25181E+01 13724   0.431E+00    0.170E+01
RMM:   4    -0.115347135186E+04    0.24920E+01   -0.86353E+00 13888   0.185E+00    0.103E+01
RMM:   5    -0.115470053657E+04   -0.12292E+01   -0.29711E+00 13050   0.107E+00    0.150E+01
RMM:   6    -0.115364292567E+04    0.10576E+01   -0.36913E+00 13205   0.105E+00    0.503E+00
RMM:   7    -0.115367503647E+04   -0.32111E-01   -0.51334E-01 12928   0.627E-01    0.501E+00
RMM:   8    -0.115355056297E+04    0.12447E+00   -0.12638E-01 13429   0.275E-01    0.384E+00
RMM:   9    -0.115340614153E+04    0.14442E+00   -0.13086E-01 12937   0.224E-01    0.271E+00
RMM:  10    -0.115335272160E+04    0.53420E-01   -0.84482E-02 13352   0.196E-01    0.186E+00
RMM:  11    -0.115335032119E+04    0.24004E-02   -0.41976E-02 12610   0.167E-01    0.117E+00
RMM:  12    -0.115334264499E+04    0.76762E-02   -0.24767E-02 12766   0.132E-01    0.830E-01
RMM:  13    -0.115334358647E+04   -0.94148E-03   -0.11899E-02 13187   0.853E-02    0.603E-01
RMM:  14    -0.115334672235E+04   -0.31359E-02   -0.64077E-03 12636   0.736E-02    0.477E-01
RMM:  15    -0.115335083812E+04   -0.41158E-02   -0.10639E-02 12501   0.988E-02    0.277E-01
RMM:  16    -0.115335266394E+04   -0.18258E-02   -0.34256E-03 12245   0.608E-02    0.287E-01
RMM:  17    -0.115335348747E+04   -0.82354E-03   -0.18663E-03 11704   0.376E-02    0.198E-01
RMM:  18    -0.115335382227E+04   -0.33480E-03   -0.63539E-04 10415   0.261E-02    0.117E-01
RMM:  19    -0.115335424690E+04   -0.42463E-03   -0.44924E-04  9981   0.231E-02    0.855E-02
RMM:  20    -0.115335460017E+04   -0.35327E-03   -0.38204E-04  9762   0.200E-02    0.104E-01
RMM:  21    -0.115335476920E+04   -0.16903E-03   -0.15812E-04  8321   0.152E-02    0.818E-02
RMM:  22    -0.115335496365E+04   -0.19446E-03   -0.16897E-04  8358   0.127E-02    0.755E-02
RMM:  23    -0.115335514247E+04   -0.17882E-03   -0.15556E-04  8260   0.131E-02    0.532E-02
RMM:  24    -0.115335532047E+04   -0.17800E-03   -0.18146E-04  8290   0.135E-02    0.480E-02
RMM:  25    -0.115335547337E+04   -0.15290E-03   -0.21663E-04  8373   0.140E-02    0.335E-02
RMM:  26    -0.115335559043E+04   -0.11706E-03   -0.18765E-04  8281   0.132E-02    0.252E-02
RMM:  27    -0.115335568795E+04   -0.97529E-04   -0.18334E-04  8243   0.136E-02
   2 F= -.11533557E+04 E0= -.11533447E+04  d E =0.694892E+01  mag=     5.9946
       N       E                     dE             d eps       ncg     rms          rms(c)
DAV:   1    -0.115376801166E+04   -0.41242E+00   -0.11228E+03 12528   0.271E+01    0.262E+01
RMM:   2    -0.116075347371E+04   -0.69855E+01   -0.74215E+01 12288   0.745E+00    0.243E+01
RMM:   3    -0.116000949756E+04    0.74398E+00   -0.46294E+00 13007   0.220E+00    0.172E+01
RMM:   4    -0.115947700538E+04    0.53249E+00   -0.51858E+00 12891   0.180E+00    0.106E+01
RMM:   5    -0.115877993646E+04    0.69707E+00   -0.10197E+00 13341   0.102E+00    0.321E+00
RMM:   6    -0.115873557087E+04    0.44366E-01   -0.28995E-01 13494   0.478E-01    0.305E+00
RMM:   7    -0.115894522472E+04   -0.20965E+00   -0.60425E-02 13663   0.225E-01    0.247E+00
RMM:   8    -0.115901178796E+04   -0.66563E-01   -0.63890E-02 12362   0.208E-01    0.147E+00
RMM:   9    -0.115903223312E+04   -0.20445E-01   -0.40424E-02 13226   0.187E-01    0.838E-01
RMM:  10    -0.115903771412E+04   -0.54810E-02   -0.14012E-02 13305   0.104E-01    0.521E-01
RMM:  11    -0.115903946729E+04   -0.17532E-02   -0.70143E-03 13241   0.704E-02    0.317E-01
RMM:  12    -0.115904065018E+04   -0.11829E-02   -0.35643E-03 12874   0.533E-02    0.194E-01
RMM:  13    -0.115904118363E+04   -0.53345E-03   -0.17363E-03 12079   0.365E-02    0.855E-02
RMM:  14    -0.115904146671E+04   -0.28307E-03   -0.61221E-04 10548   0.227E-02    0.590E-02
RMM:  15    -0.115904161397E+04   -0.14726E-03   -0.15745E-04  8360   0.145E-02    0.490E-02
RMM:  16    -0.115904178613E+04   -0.17216E-03   -0.12231E-04  8134   0.121E-02    0.430E-02
RMM:  17    -0.115904192501E+04   -0.13888E-03   -0.86058E-05  7779   0.106E-02    0.407E-02
RMM:  18    -0.115904205858E+04   -0.13357E-03   -0.73148E-05  7595   0.895E-03    0.391E-02
RMM:  19    -0.115904219820E+04   -0.13962E-03   -0.77770E-05  7531   0.921E-03    0.382E-02
RMM:  20    -0.115904237287E+04   -0.17467E-03   -0.11263E-04  7659   0.103E-02    0.370E-02
RMM:  21    -0.115904263164E+04   -0.25877E-03   -0.24783E-04  8241   0.147E-02    0.357E-02
RMM:  22    -0.115904311345E+04   -0.48181E-03   -0.97961E-04  9830   0.279E-02    0.327E-02
RMM:  23    -0.115904358904E+04   -0.47559E-03   -0.13727E-03 10184   0.336E-02    0.312E-02
RMM:  24    -0.115904373866E+04   -0.14962E-03   -0.34414E-04  8324   0.163E-02    0.286E-02
RMM:  25    -0.115904417797E+04   -0.43931E-03   -0.16694E-03 10466   0.369E-02    0.337E-02
RMM:  26    -0.115904426193E+04   -0.83959E-04   -0.18551E-04  7888   0.134E-02
   3 F= -.11590443E+04 E0= -.11590427E+04  d E =-.568857E+01  mag=     5.9818
       N       E                     dE             d eps       ncg     rms          rms(c)
DAV:   1    -0.115943875738E+04   -0.39458E+00   -0.34059E+02 12544   0.193E+01    0.665E+00
RMM:   2    -0.116072094754E+04   -0.12822E+01   -0.12919E+01 12296   0.418E+00    0.918E+00
RMM:   3    -0.116058980363E+04    0.13114E+00   -0.59932E-01 13452   0.105E+00    0.711E+00
RMM:   4    -0.116051685148E+04    0.72952E-01   -0.30871E-01 12977   0.534E-01    0.369E+00
RMM:   5    -0.116047646764E+04    0.40384E-01   -0.15252E-01 12379   0.356E-01    0.206E+00
RMM:   6    -0.116048195636E+04   -0.54887E-02   -0.65803E-02 13295   0.260E-01    0.112E+00
RMM:   7    -0.116047772651E+04    0.42299E-02   -0.17603E-02 12350   0.134E-01    0.463E-01
RMM:   8    -0.116047895603E+04   -0.12295E-02   -0.61542E-03 13116   0.685E-02    0.308E-01
RMM:   9    -0.116048120359E+04   -0.22476E-02   -0.18380E-03 11260   0.425E-02    0.224E-01
RMM:  10    -0.116048408131E+04   -0.28777E-02   -0.15562E-03 10956   0.428E-02    0.203E-01
RMM:  11    -0.116048582940E+04   -0.17481E-02   -0.79666E-04 10335   0.298E-02    0.160E-01
RMM:  12    -0.116048873619E+04   -0.29068E-02   -0.13060E-03 10719   0.382E-02    0.164E-01
RMM:  13    -0.116048845130E+04    0.28489E-03   -0.11497E-04  8126   0.128E-02    0.166E-01
RMM:  14    -0.116048871730E+04   -0.26599E-03   -0.60997E-05  7810   0.717E-03    0.165E-01
RMM:  15    -0.116049093683E+04   -0.22195E-02   -0.70086E-04 10231   0.269E-02    0.167E-01
RMM:  16    -0.116049356422E+04   -0.26274E-02   -0.11858E-03 10646   0.362E-02    0.163E-01
RMM:  17    -0.116049556413E+04   -0.19999E-02   -0.86944E-04 10340   0.312E-02    0.160E-01
RMM:  18    -0.116049694541E+04   -0.13813E-02   -0.53751E-04  9871   0.257E-02    0.163E-01
RMM:  19    -0.116049886335E+04   -0.19179E-02   -0.70053E-04 10254   0.279E-02    0.151E-01
RMM:  20    -0.116049998646E+04   -0.11231E-02   -0.33840E-04  9019   0.211E-02    0.153E-01
RMM:  21    -0.116050038743E+04   -0.40097E-03   -0.11475E-04  7967   0.123E-02    0.156E-01
RMM:  22    -0.116049823092E+04    0.21565E-02   -0.81554E-04 10084   0.326E-02    0.160E-01
RMM:  23    -0.116049494103E+04    0.32899E-02   -0.29196E-03 11317   0.566E-02    0.157E-01
RMM:  24    -0.116049476503E+04    0.17600E-03   -0.19004E-04  8385   0.188E-02    0.154E-01
RMM:  25    -0.116049500978E+04   -0.24475E-03   -0.28347E-04  9139   0.167E-02    0.189E-01
RMM:  26    -0.116049807218E+04   -0.30624E-02   -0.15173E-03 10792   0.412E-02    0.228E-01
RMM:  27    -0.116050311606E+04   -0.50439E-02   -0.50051E-03 12038   0.749E-02    0.295E-01
RMM:  28    -0.116050310649E+04    0.95689E-05   -0.43682E-04  9549   0.266E-02
   4 F= -.11605031E+04 E0= -.11604925E+04  d E =-.145884E+01  mag=     5.7447
       N       E                     dE             d eps       ncg     rms          rms(c)
DAV:   1    -0.116098977384E+04   -0.48666E+00   -0.79771E+01 12848   0.858E+00    0.315E+00
RMM:   2    -0.116121390288E+04   -0.22413E+00   -0.22353E+00 12301   0.161E+00    0.302E+00
RMM:   3    -0.116119658824E+04    0.17315E-01   -0.14455E-01 13128   0.472E-01    0.188E+00
RMM:   4    -0.116119855329E+04   -0.19651E-02   -0.65615E-02 13352   0.236E-01    0.111E+00
RMM:   5    -0.116120547484E+04   -0.69216E-02   -0.29160E-02 12767   0.171E-01    0.484E-01
RMM:   6    -0.116121107834E+04   -0.56035E-02   -0.59039E-03 12978   0.804E-02    0.408E-01
RMM:   7    -0.116121325923E+04   -0.21809E-02   -0.24006E-03 12827   0.449E-02    0.310E-01
RMM:   8    -0.116121777427E+04   -0.45150E-02   -0.48199E-03 12319   0.682E-02    0.181E-01
RMM:   9    -0.116121903735E+04   -0.12631E-02   -0.11612E-03 11224   0.392E-02    0.118E-01
RMM:  10    -0.116121958763E+04   -0.55028E-03   -0.54991E-04 10298   0.249E-02    0.902E-02
RMM:  11    -0.116121994465E+04   -0.35702E-03   -0.20308E-04  8778   0.196E-02    0.644E-02
RMM:  12    -0.116122010945E+04   -0.16481E-03   -0.15782E-04  8448   0.138E-02    0.339E-02
RMM:  13    -0.116122019143E+04   -0.81974E-04   -0.69538E-05  7924   0.108E-02
   5 F= -.11612202E+04 E0= -.11612150E+04  d E =-.717085E+00  mag=     5.9389
       N       E                     dE             d eps       ncg     rms          rms(c)
DAV:   1    -0.116173854738E+04   -0.51844E+00   -0.66895E+01 12592   0.762E+00    0.290E+00
RMM:   2    -0.116192105619E+04   -0.18251E+00   -0.18515E+00 12308   0.143E+00    0.255E+00
RMM:   3    -0.116190537393E+04    0.15682E-01   -0.11360E-01 12915   0.425E-01    0.146E+00
RMM:   4    -0.116190270653E+04    0.26674E-02   -0.42658E-02 13101   0.197E-01    0.745E-01
RMM:   5    -0.116190105425E+04    0.16523E-02   -0.10891E-02 13145   0.110E-01    0.275E-01
RMM:   6    -0.116190148188E+04   -0.42763E-03   -0.15341E-03 12991   0.361E-02    0.167E-01
RMM:   7    -0.116190175499E+04   -0.27310E-03   -0.54746E-04 11123   0.225E-02    0.958E-02
RMM:   8    -0.116190194009E+04   -0.18510E-03   -0.30951E-04  9348   0.199E-02    0.404E-02
RMM:   9    -0.116190197270E+04   -0.32609E-04   -0.10360E-04  8245   0.118E-02
   6 F= -.11619020E+04 E0= -.11618977E+04  d E =-.681781E+00  mag=     5.9639
       N       E                     dE             d eps       ncg     rms          rms(c)
DAV:   1    -0.116225558952E+04   -0.35365E+00   -0.45527E+01 12600   0.633E+00    0.244E+00
RMM:   2    -0.116235994342E+04   -0.10435E+00   -0.12424E+00 12297   0.117E+00    0.205E+00
RMM:   3    -0.116235110738E+04    0.88360E-02   -0.82437E-02 13149   0.354E-01    0.114E+00
RMM:   4    -0.116234716624E+04    0.39411E-02   -0.28782E-02 13032   0.157E-01    0.585E-01
RMM:   5    -0.116234535374E+04    0.18125E-02   -0.60253E-03 13062   0.824E-02    0.198E-01
RMM:   6    -0.116234553242E+04   -0.17868E-03   -0.12220E-03 12797   0.304E-02    0.126E-01
RMM:   7    -0.116234565268E+04   -0.12026E-03   -0.37433E-04 10058   0.192E-02    0.724E-02
RMM:   8    -0.116234572431E+04   -0.71639E-04   -0.19415E-04  8645   0.150E-02
   7 F= -.11623457E+04 E0= -.11623429E+04  d E =-.443752E+00  mag=     5.9763
       N       E                     dE             d eps       ncg     rms          rms(c)
DAV:   1    -0.116252737991E+04   -0.18173E+00   -0.26753E+01 12752   0.506E+00    0.197E+00
RMM:   2    -0.116259362139E+04   -0.66241E-01   -0.77230E-01 12295   0.957E-01    0.161E+00
RMM:   3    -0.116258924526E+04    0.43761E-02   -0.51845E-02 13273   0.285E-01    0.944E-01
RMM:   4    -0.116258681564E+04    0.24296E-02   -0.18444E-02 13520   0.130E-01    0.424E-01
RMM:   5    -0.116258614299E+04    0.67265E-03   -0.40502E-03 13421   0.641E-02    0.162E-01
RMM:   6    -0.116258625452E+04   -0.11153E-03   -0.77165E-04 12043   0.254E-02    0.107E-01
RMM:   7    -0.116258634061E+04   -0.86093E-04   -0.26257E-04  9225   0.169E-02    0.571E-02
RMM:   8    -0.116258640475E+04   -0.64135E-04   -0.14852E-04  8348   0.130E-02
   8 F= -.11625864E+04 E0= -.11625840E+04  d E =-.240680E+00  mag=     5.9788
       N       E                     dE             d eps       ncg     rms          rms(c)
DAV:   1    -0.116263655801E+04   -0.50217E-01   -0.26286E+01 12768   0.543E+00    0.195E+00
RMM:   2    -0.116270881223E+04   -0.72254E-01   -0.81417E-01 12306   0.106E+00    0.190E+00
RMM:   3    -0.116270434714E+04    0.44651E-02   -0.48067E-02 13604   0.310E-01    0.131E+00
RMM:   4    -0.116270225198E+04    0.20952E-02   -0.19911E-02 13581   0.139E-01    0.591E-01
RMM:   5    -0.116270128725E+04    0.96473E-03   -0.48980E-03 13673   0.744E-02    0.159E-01
RMM:   6    -0.116270130090E+04   -0.13645E-04   -0.77541E-04 12309   0.270E-02    0.106E-01
RMM:   7    -0.116270134842E+04   -0.47525E-04   -0.25955E-04  9444   0.167E-02    0.618E-02
RMM:   8    -0.116270141202E+04   -0.63599E-04   -0.14901E-04  8196   0.137E-02
   9 F= -.11627014E+04 E0= -.11626993E+04  d E =-.115007E+00  mag=     5.9807
       N       E                     dE             d eps       ncg     rms          rms(c)
DAV:   1    -0.116270613538E+04   -0.47870E-02   -0.11456E+01 12912   0.389E+00    0.102E+00
RMM:   2    -0.116273634849E+04   -0.30213E-01   -0.30446E-01 12321   0.702E-01    0.866E-01
RMM:   3    -0.116273642240E+04   -0.73913E-04   -0.17274E-02 12983   0.236E-01    0.545E-01
RMM:   4    -0.116273588043E+04    0.54197E-03   -0.52561E-03 15093   0.787E-02    0.312E-01
RMM:   5    -0.116273580906E+04    0.71366E-04   -0.17812E-03 13898   0.407E-02    0.106E-01
RMM:   6    -0.116273585625E+04   -0.47181E-04   -0.28920E-04  9553   0.207E-02    0.573E-02
RMM:   7    -0.116273588451E+04   -0.28267E-04   -0.12295E-04  8056   0.122E-02    0.394E-02
RMM:   8    -0.116273592866E+04   -0.44144E-04   -0.84359E-05  7541   0.123E-02
  10 F= -.11627359E+04 E0= -.11627340E+04  d E =-.345166E-01  mag=     5.9804
       N       E                     dE             d eps       ncg     rms          rms(c)
DAV:   1    -0.116273467224E+04    0.12123E-02   -0.50360E+00 12880   0.249E+00    0.730E-01
RMM:   2    -0.116274625515E+04   -0.11583E-01   -0.14607E-01 12297   0.461E-01    0.823E-01
RMM:   3    -0.116274550987E+04    0.74529E-03   -0.69967E-03 13236   0.133E-01    0.635E-01
RMM:   4    -0.116274529149E+04    0.21838E-03   -0.31576E-03 12361   0.562E-02    0.356E-01
RMM:   5    -0.116274469777E+04    0.59372E-03   -0.13594E-03 11647   0.374E-02    0.697E-02
RMM:   6    -0.116274467948E+04    0.18288E-04   -0.11297E-04  7941   0.150E-02    0.496E-02
RMM:   7    -0.116274467937E+04    0.11011E-06   -0.62361E-05  7347   0.941E-03    0.259E-02
RMM:   8    -0.116274468945E+04   -0.10079E-04   -0.38232E-05  7127   0.887E-03
  11 F= -.11627447E+04 E0= -.11627427E+04  d E =-.876079E-02  mag=     5.9799
       N       E                     dE             d eps       ncg     rms          rms(c)
DAV:   1    -0.116273447579E+04    0.10204E-01   -0.16825E+01 12680   0.465E+00    0.116E+00
RMM:   2    -0.116277664021E+04   -0.42164E-01   -0.44687E-01 12321   0.829E-01    0.103E+00
RMM:   3    -0.116277611611E+04    0.52409E-03   -0.24511E-02 12990   0.274E-01    0.687E-01
RMM:   4    -0.116277515603E+04    0.96009E-03   -0.72649E-03 15178   0.917E-02    0.393E-01
RMM:   5    -0.116277497247E+04    0.18356E-03   -0.23734E-03 14024   0.463E-02    0.139E-01
RMM:   6    -0.116277502924E+04   -0.56768E-04   -0.47088E-04 10997   0.246E-02    0.688E-02
RMM:   7    -0.116277504625E+04   -0.17011E-04   -0.16001E-04  8402   0.138E-02    0.461E-02
RMM:   8    -0.116277507744E+04   -0.31186E-04   -0.10240E-04  7609   0.123E-02
  12 F= -.11627751E+04 E0= -.11627732E+04  d E =-.303880E-01  mag=     5.9794
       N       E                     dE             d eps       ncg     rms          rms(c)
DAV:   1    -0.116276745032E+04    0.75959E-02   -0.58526E+00 12800   0.276E+00    0.638E-01
RMM:   2    -0.116278150774E+04   -0.14057E-01   -0.15633E-01 12316   0.492E-01    0.671E-01
RMM:   3    -0.116278119509E+04    0.31265E-03   -0.82238E-03 12975   0.161E-01    0.491E-01
RMM:   4    -0.116278089754E+04    0.29755E-03   -0.25050E-03 14216   0.535E-02    0.300E-01
RMM:   5    -0.116278073454E+04    0.16300E-03   -0.11400E-03 12406   0.325E-02    0.817E-02
RMM:   6    -0.116278074899E+04   -0.14445E-04   -0.17650E-04  8378   0.184E-02    0.440E-02
RMM:   7    -0.116278075305E+04   -0.40613E-05   -0.74272E-05  7426   0.995E-03    0.309E-02
RMM:   8    -0.116278076522E+04   -0.12175E-04   -0.48341E-05  7220   0.105E-02
  13 F= -.11627808E+04 E0= -.11627790E+04  d E =-.568778E-02  mag=     5.9811
       N       E                     dE             d eps       ncg     rms          rms(c)
DAV:   1    -0.116278612801E+04   -0.53750E-02   -0.51869E+00 12752   0.253E+00    0.771E-01
RMM:   2    -0.116279831803E+04   -0.12190E-01   -0.15242E-01 12303   0.469E-01    0.804E-01
RMM:   3    -0.116279758624E+04    0.73179E-03   -0.78170E-03 13182   0.139E-01    0.607E-01
RMM:   4    -0.116279731189E+04    0.27434E-03   -0.35065E-03 12582   0.604E-02    0.327E-01
RMM:   5    -0.116279685748E+04    0.45442E-03   -0.11274E-03 11723   0.348E-02    0.744E-02
RMM:   6    -0.116279683703E+04    0.20443E-04   -0.13430E-04  8039   0.147E-02    0.466E-02
RMM:   7    -0.116279683432E+04    0.27097E-05   -0.60198E-05  7296   0.987E-03    0.268E-02
RMM:   8    -0.116279683864E+04   -0.43211E-05   -0.41026E-05  7068   0.892E-03
  14 F= -.11627968E+04 E0= -.11627950E+04  d E =-.160734E-01  mag=     5.9804
       N       E                     dE             d eps       ncg     rms          rms(c)
DAV:   1    -0.116279735240E+04   -0.51808E-03   -0.38884E+00 12672   0.225E+00    0.417E-01
RMM:   2    -0.116280621306E+04   -0.88607E-02   -0.94753E-02 12349   0.377E-01    0.308E-01
RMM:   3    -0.116280618528E+04    0.27777E-04   -0.47485E-03 12458   0.128E-01    0.199E-01
RMM:   4    -0.116280600794E+04    0.17734E-03   -0.11698E-03 13654   0.386E-02    0.129E-01
RMM:   5    -0.116280596685E+04    0.41088E-04   -0.37915E-04 10100   0.208E-02    0.508E-02
RMM:   6    -0.116280598092E+04   -0.14069E-04   -0.10606E-04  7518   0.143E-02    0.230E-02
RMM:   7    -0.116280598649E+04   -0.55751E-05   -0.42300E-05  7161   0.952E-03    0.163E-02
RMM:   8    -0.116280599211E+04   -0.56123E-05   -0.30519E-05  6965   0.791E-03
  15 F= -.11628060E+04 E0= -.11628042E+04  d E =-.915346E-02  mag=     5.9804
       N       E                     dE             d eps       ncg     rms          rms(c)
DAV:   1    -0.116280286781E+04    0.31187E-02   -0.58018E+00 12600   0.275E+00    0.492E-01
RMM:   2    -0.116281589815E+04   -0.13030E-01   -0.13956E-01 12337   0.457E-01    0.345E-01
RMM:   3    -0.116281585090E+04    0.47249E-04   -0.72058E-03 12455   0.162E-01    0.225E-01
RMM:   4    -0.116281562603E+04    0.22487E-03   -0.18161E-03 14705   0.471E-02    0.146E-01
RMM:   5    -0.116281556927E+04    0.56754E-04   -0.53604E-04 11697   0.225E-02    0.552E-02
RMM:   6    -0.116281558900E+04   -0.19729E-04   -0.13807E-04  7864   0.157E-02    0.255E-02
RMM:   7    -0.116281559726E+04   -0.82581E-05   -0.60493E-05  7286   0.101E-02    0.179E-02
RMM:   8    -0.116281560542E+04   -0.81561E-05   -0.44512E-05  7070   0.887E-03
  16 F= -.11628156E+04 E0= -.11628138E+04  d E =-.961331E-02  mag=     5.9801
       N       E                     dE             d eps       ncg     rms          rms(c)
DAV:   1    -0.116281162470E+04    0.39726E-02   -0.54943E+00 12592   0.268E+00    0.451E-01
RMM:   2    -0.116282377615E+04   -0.12151E-01   -0.13056E-01 12352   0.441E-01    0.287E-01
RMM:   3    -0.116282371196E+04    0.64197E-04   -0.65651E-03 12367   0.155E-01    0.188E-01
RMM:   4    -0.116282350444E+04    0.20751E-03   -0.16708E-03 14540   0.455E-02    0.126E-01
RMM:   5    -0.116282346944E+04    0.35007E-04   -0.40991E-04 10820   0.207E-02    0.452E-02
RMM:   6    -0.116282348725E+04   -0.17813E-04   -0.13723E-04  7758   0.150E-02    0.209E-02
RMM:   7    -0.116282349425E+04   -0.70042E-05   -0.51047E-05  7215   0.104E-02    0.157E-02
RMM:   8    -0.116282350150E+04   -0.72510E-05   -0.47128E-05  7028   0.862E-03
  17 F= -.11628235E+04 E0= -.11628217E+04  d E =-.789609E-02  mag=     5.9803
       N       E                     dE             d eps       ncg     rms          rms(c)
DAV:   1    -0.116281954757E+04    0.39467E-02   -0.49395E+00 12768   0.255E+00    0.421E-01
RMM:   2    -0.116283044215E+04   -0.10895E-01   -0.11792E-01 12329   0.419E-01    0.266E-01
RMM:   3    -0.116283036002E+04    0.82131E-04   -0.58839E-03 12339   0.147E-01    0.173E-01
RMM:   4    -0.116283017659E+04    0.18343E-03   -0.15698E-03 14389   0.435E-02    0.107E-01
RMM:   5    -0.116283015075E+04    0.25842E-04   -0.37457E-04 10727   0.199E-02    0.340E-02
RMM:   6    -0.116283016581E+04   -0.15057E-04   -0.10509E-04  7503   0.136E-02    0.185E-02
RMM:   7    -0.116283017251E+04   -0.66994E-05   -0.46744E-05  7180   0.981E-03    0.135E-02
RMM:   8    -0.116283017960E+04   -0.70885E-05   -0.42758E-05  6954   0.836E-03
  18 F= -.11628302E+04 E0= -.11628284E+04  d E =-.667809E-02  mag=     5.9796
       N       E                     dE             d eps       ncg     rms          rms(c)
DAV:   1    -0.116282587119E+04    0.43013E-02   -0.43341E+00 12672   0.238E+00    0.398E-01
RMM:   2    -0.116283544325E+04   -0.95721E-02   -0.10293E-01 12324   0.390E-01    0.252E-01
RMM:   3    -0.116283538431E+04    0.58944E-04   -0.52388E-03 12318   0.139E-01    0.163E-01
RMM:   4    -0.116283521920E+04    0.16511E-03   -0.13305E-03 14103   0.406E-02    0.101E-01
RMM:   5    -0.116283520228E+04    0.16924E-04   -0.33760E-04 10140   0.193E-02    0.372E-02
RMM:   6    -0.116283521717E+04   -0.14892E-04   -0.10273E-04  7440   0.134E-02    0.186E-02
RMM:   7    -0.116283522281E+04   -0.56372E-05   -0.38416E-05  7135   0.972E-03    0.137E-02
RMM:   8    -0.116283522941E+04   -0.66035E-05   -0.41611E-05  6888   0.821E-03
  19 F= -.11628352E+04 E0= -.11628335E+04  d E =-.504981E-02  mag=     5.9794
       N       E                     dE             d eps       ncg     rms          rms(c)
DAV:   1    -0.116283377209E+04    0.14507E-02   -0.22391E+00 12912   0.171E+00    0.284E-01
RMM:   2    -0.116283869288E+04   -0.49208E-02   -0.53431E-02 12360   0.282E-01    0.175E-01
RMM:   3    -0.116283865636E+04    0.36524E-04   -0.27249E-03 12318   0.100E-01    0.114E-01
RMM:   4    -0.116283856964E+04    0.86721E-04   -0.72363E-04 12677   0.301E-02    0.693E-02
RMM:   5    -0.116283856342E+04    0.62203E-05   -0.16429E-04  7744   0.160E-02    0.212E-02
RMM:   6    -0.116283857167E+04   -0.82584E-05   -0.57509E-05  7142   0.108E-02    0.120E-02
RMM:   7    -0.116283857666E+04   -0.49803E-05   -0.34903E-05  6966   0.864E-03    0.930E-03
RMM:   8    -0.116283858078E+04   -0.41228E-05   -0.22430E-05  6676   0.672E-03
  20 F= -.11628386E+04 E0= -.11628368E+04  d E =-.335137E-02  mag=     5.9789
       N       E                     dE             d eps       ncg     rms          rms(c)
DAV:   1    -0.116283767090E+04    0.90576E-03   -0.16343E+00 12816   0.146E+00    0.240E-01
RMM:   2    -0.116284126608E+04   -0.35952E-02   -0.38970E-02 12349   0.241E-01    0.148E-01
RMM:   3    -0.116284124413E+04    0.21951E-04   -0.20094E-03 12177   0.864E-02    0.967E-02
RMM:   4    -0.116284118214E+04    0.61989E-04   -0.53827E-04 11435   0.261E-02    0.541E-02
RMM:   5    -0.116284117587E+04    0.62719E-05   -0.11734E-04  7363   0.146E-02    0.165E-02
RMM:   6    -0.116284118254E+04   -0.66782E-05   -0.43963E-05  7038   0.945E-03    0.105E-02
RMM:   7    -0.116284118642E+04   -0.38720E-05   -0.25850E-05  6846   0.750E-03    0.791E-03
RMM:   8    -0.116284118967E+04   -0.32527E-05   -0.17754E-05  6493   0.583E-03
  21 F= -.11628412E+04 E0= -.11628394E+04  d E =-.260889E-02  mag=     5.9793
       N       E                     dE             d eps       ncg     rms          rms(c)
DAV:   1    -0.116284007698E+04    0.11094E-02   -0.16484E+00 12752   0.147E+00    0.239E-01
RMM:   2    -0.116284366347E+04   -0.35865E-02   -0.38971E-02 12340   0.241E-01    0.146E-01
RMM:   3    -0.116284364359E+04    0.19879E-04   -0.20129E-03 12109   0.869E-02    0.950E-02
RMM:   4    -0.116284357774E+04    0.65851E-04   -0.54220E-04 11276   0.262E-02    0.553E-02
RMM:   5    -0.116284357416E+04    0.35826E-05   -0.10531E-04  7284   0.143E-02    0.165E-02
RMM:   6    -0.116284358092E+04   -0.67662E-05   -0.43781E-05  7037   0.944E-03    0.102E-02
RMM:   7    -0.116284358454E+04   -0.36214E-05   -0.25050E-05  6860   0.747E-03    0.789E-03
RMM:   8    -0.116284358772E+04   -0.31813E-05   -0.17486E-05  6563   0.590E-03
  22 F= -.11628436E+04 E0= -.11628418E+04  d E =-.239805E-02  mag=     5.9792
