       N       E                     dE             d eps       ncg     rms          rms(c)
DAV:   1    -0.116355220354E+04   -0.11636E+04   -0.24418E-06  3408   0.226E-03    0.167E-03
RMM:   2    -0.116355220387E+04   -0.32775E-06   -0.34579E-07   849   0.154E-03    0.150E-03
RMM:   3    -0.116355220401E+04   -0.13613E-06   -0.11977E-07   529   0.143E-03    0.148E-03
RMM:   4    -0.116355220394E+04    0.66546E-07   -0.33526E-08   389   0.139E-03    0.142E-03
RMM:   5    -0.116355220366E+04    0.27496E-06   -0.35814E-08   410   0.140E-03    0.171E-03
RMM:   6    -0.116355220367E+04   -0.95315E-08   -0.72414E-09   255   0.137E-03    0.166E-03
RMM:   7    -0.116355220344E+04    0.23431E-06   -0.62431E-08   370   0.143E-03    0.176E-03
RMM:   8    -0.116355220329E+04    0.14782E-06   -0.48426E-08   300   0.140E-03
   1 F= -.11635522E+04 E0= -.11635493E+04  d E =-.116355E+04  mag=    -2.0270
       N       E                     dE             d eps       ncg     rms          rms(c)
DAV:   1    -0.116355232564E+04   -0.12220E-03   -0.11652E-01  6176   0.397E-01    0.103E-01
RMM:   2    -0.116355253066E+04   -0.20503E-03   -0.35988E-03  6106   0.769E-02    0.976E-02
RMM:   3    -0.116355249442E+04    0.36245E-04   -0.13092E-04  3705   0.239E-02    0.658E-02
RMM:   4    -0.116355246829E+04    0.26129E-04   -0.93138E-05  3576   0.122E-02    0.524E-02
RMM:   5    -0.116355245972E+04    0.85722E-05   -0.27341E-05  3395   0.827E-03    0.167E-02
RMM:   6    -0.116355245924E+04    0.47550E-06   -0.10908E-05  3057   0.449E-03    0.129E-02
RMM:   7    -0.116355245959E+04   -0.34751E-06   -0.43958E-06  2759   0.387E-03    0.817E-03
RMM:   8    -0.116355245997E+04   -0.38018E-06   -0.20679E-06  2106   0.240E-03
   2 F= -.11635525E+04 E0= -.11635495E+04  d E =-.256677E-03  mag=    -2.0269
       N       E                     dE             d eps       ncg     rms          rms(c)
DAV:   1    -0.116355269594E+04   -0.23635E-03   -0.21294E-02  6080   0.167E-01    0.494E-02
RMM:   2    -0.116355272045E+04   -0.24506E-04   -0.70879E-04  5663   0.338E-02    0.471E-02
RMM:   3    -0.116355270934E+04    0.11105E-04   -0.29771E-05  3207   0.105E-02    0.315E-02
RMM:   4    -0.116355270025E+04    0.90897E-05   -0.31234E-05  3114   0.672E-03    0.228E-02
RMM:   5    -0.116355269841E+04    0.18429E-05   -0.75051E-06  2712   0.460E-03    0.933E-03
RMM:   6    -0.116355269843E+04   -0.23952E-07   -0.27566E-06  2065   0.261E-03    0.689E-03
RMM:   7    -0.116355269858E+04   -0.14759E-06   -0.10560E-06  1446   0.242E-03    0.443E-03
RMM:   8    -0.116355269886E+04   -0.27870E-06   -0.50584E-07  1077   0.202E-03
   3 F= -.11635527E+04 E0= -.11635497E+04  d E =-.238890E-03  mag=    -2.0270
