       N       E                     dE             d eps       ncg     rms          rms(c)
DAV:   1     0.120114856162E+05    0.12011E+05   -0.42367E+05 12352   0.132E+03
DAV:   2     0.683842889008E+03   -0.11328E+05   -0.10115E+05 12320   0.378E+02
DAV:   3    -0.135287854599E+04   -0.20367E+04   -0.19617E+04 13256   0.167E+02
DAV:   4    -0.149039392218E+04   -0.13752E+03   -0.13522E+03 16120   0.457E+01
DAV:   5    -0.149953178157E+04   -0.91379E+01   -0.90929E+01 22248   0.108E+01    0.183E+02
RMM:   6    -0.116135990955E+04    0.33817E+03   -0.16203E+03 12499   0.355E+01    0.123E+02
RMM:   7    -0.114566981273E+04    0.15690E+02   -0.67828E+01 12831   0.116E+01    0.774E+01
RMM:   8    -0.115016593106E+04   -0.44961E+01   -0.34611E+01 12959   0.663E+00    0.524E+01
RMM:   9    -0.115259373772E+04   -0.24278E+01   -0.19330E+01 13905   0.445E+00    0.333E+01
RMM:  10    -0.115351858625E+04   -0.92485E+00   -0.74407E+00 12894   0.305E+00    0.128E+01
RMM:  11    -0.115332545372E+04    0.19313E+00   -0.29981E+00 14433   0.189E+00    0.174E+01
RMM:  12    -0.115484827496E+04   -0.15228E+01   -0.81256E-01 14878   0.938E-01    0.126E+01
RMM:  13    -0.115497527785E+04   -0.12700E+00   -0.17991E+00 13132   0.134E+00    0.676E+00
RMM:  14    -0.115510372844E+04   -0.12845E+00   -0.54362E-01 14236   0.627E-01    0.388E+00
RMM:  15    -0.115564187816E+04   -0.53815E+00   -0.18326E-01 13829   0.445E-01    0.410E+00
RMM:  16    -0.115591513078E+04   -0.27325E+00   -0.14864E-01 13318   0.411E-01    0.335E+00
RMM:  17    -0.115619702802E+04   -0.28190E+00   -0.28005E-01 12480   0.615E-01    0.201E+00
RMM:  18    -0.115624175340E+04   -0.44725E-01   -0.12284E-01 13871   0.392E-01    0.133E+00
RMM:  19    -0.115624302798E+04   -0.12746E-02   -0.41363E-02 14187   0.217E-01    0.908E-01
RMM:  20    -0.115624811543E+04   -0.50874E-02   -0.27283E-02 13941   0.161E-01    0.537E-01
RMM:  21    -0.115625320805E+04   -0.50926E-02   -0.20853E-02 13230   0.150E-01    0.224E-01
RMM:  22    -0.115625607868E+04   -0.28706E-02   -0.75560E-03 14040   0.723E-02    0.172E-01
RMM:  23    -0.115625766995E+04   -0.15913E-02   -0.18957E-03 12494   0.376E-02    0.143E-01
RMM:  24    -0.115626008264E+04   -0.24127E-02   -0.18331E-03 10915   0.402E-02    0.132E-01
RMM:  25    -0.115626238807E+04   -0.23054E-02   -0.18950E-03 10229   0.403E-02    0.129E-01
RMM:  26    -0.115626458221E+04   -0.21941E-02   -0.19000E-03 10234   0.389E-02    0.131E-01
RMM:  27    -0.115626809823E+04   -0.35160E-02   -0.43789E-03 10459   0.569E-02    0.128E-01
RMM:  28    -0.115627308119E+04   -0.49830E-02   -0.95120E-03 10888   0.900E-02    0.121E-01
RMM:  29    -0.115627515021E+04   -0.20690E-02   -0.35157E-03 10565   0.486E-02    0.120E-01
RMM:  30    -0.115628242539E+04   -0.72752E-02   -0.23008E-02 11234   0.146E-01    0.106E-01
RMM:  31    -0.115628423952E+04   -0.18141E-02   -0.43666E-03 10738   0.557E-02    0.109E-01
RMM:  32    -0.115629037736E+04   -0.61378E-02   -0.27504E-02 11383   0.158E-01    0.111E-01
RMM:  33    -0.115629114080E+04   -0.76344E-03   -0.33247E-03 10410   0.589E-02    0.112E-01
RMM:  34    -0.115629642600E+04   -0.52852E-02   -0.19950E-02 11156   0.131E-01    0.942E-02
RMM:  35    -0.115630002633E+04   -0.36003E-02   -0.21516E-02 11367   0.127E-01    0.913E-02
RMM:  36    -0.115630262312E+04   -0.25968E-02   -0.17150E-02 11389   0.111E-01    0.727E-02
RMM:  37    -0.115630427464E+04   -0.16515E-02   -0.10553E-02 11215   0.849E-02    0.557E-02
RMM:  38    -0.115630063162E+04    0.36430E-02   -0.40662E-02 11418   0.197E-01    0.181E-01
RMM:  39    -0.115630439155E+04   -0.37599E-02   -0.14766E-02 11133   0.148E-01    0.732E-02
RMM:  40    -0.115630499632E+04   -0.60477E-03   -0.59668E-04  8911   0.239E-02
   1 F= -.11563050E+04 E0= -.11563050E+04  d E =-.115630E+04  mag=     9.9961
       N       E                     dE             d eps       ncg     rms          rms(c)
DAV:   1    -0.112746423559E+04    0.28840E+02   -0.23814E+03 12736   0.462E+01    0.469E+01
RMM:   2    -0.114208726401E+04   -0.14623E+02   -0.17040E+02 12372   0.106E+01    0.250E+01
RMM:   3    -0.114397111519E+04   -0.18839E+01   -0.17689E+01 13016   0.420E+00    0.203E+01
RMM:   4    -0.114395732053E+04    0.13795E-01   -0.10681E+01 14521   0.218E+00    0.146E+01
RMM:   5    -0.114286445781E+04    0.10929E+01   -0.20384E+00 14310   0.106E+00    0.781E+00
RMM:   6    -0.114245379513E+04    0.41066E+00   -0.63435E-01 14850   0.513E-01    0.367E+00
RMM:   7    -0.114244084236E+04    0.12953E-01   -0.21494E-01 15304   0.300E-01    0.325E+00
RMM:   8    -0.114252687550E+04   -0.86033E-01   -0.86823E-02 15629   0.194E-01    0.347E+00
RMM:   9    -0.114255111356E+04   -0.24238E-01   -0.22301E-02 16681   0.105E-01    0.333E+00
RMM:  10    -0.114266800459E+04   -0.11689E+00   -0.41353E-01 12397   0.445E-01    0.145E+00
RMM:  11    -0.114267337919E+04   -0.53746E-02   -0.79047E-02 13170   0.231E-01    0.822E-01
RMM:  12    -0.114267963100E+04   -0.62518E-02   -0.19302E-02 13891   0.107E-01    0.473E-01
RMM:  13    -0.114268053921E+04   -0.90821E-03   -0.54687E-03 12458   0.651E-02    0.307E-01
RMM:  14    -0.114268128202E+04   -0.74281E-03   -0.25485E-03 12188   0.435E-02    0.161E-01
RMM:  15    -0.114268151131E+04   -0.22929E-03   -0.99604E-04 10919   0.268E-02    0.833E-02
RMM:  16    -0.114268162931E+04   -0.11800E-03   -0.37469E-04  8902   0.179E-02    0.483E-02
RMM:  17    -0.114268171579E+04   -0.86478E-04   -0.18628E-04  8553   0.121E-02
   2 F= -.11426817E+04 E0= -.11426817E+04  d E =0.136233E+02  mag=    10.0065
       N       E                     dE             d eps       ncg     rms          rms(c)
DAV:   1    -0.113051028504E+04    0.12171E+02   -0.15250E+03 12288   0.193E+01    0.389E+01
RMM:   2    -0.116283083915E+04   -0.32321E+02   -0.36572E+02 12953   0.117E+01    0.427E+01
RMM:   3    -0.115459945333E+04    0.82314E+01   -0.22573E+01 12679   0.359E+00    0.353E+01
RMM:   4    -0.114881511649E+04    0.57843E+01   -0.30800E+00 12695   0.137E+00    0.237E+01
RMM:   5    -0.116375949594E+04   -0.14944E+02   -0.36440E+01 12303   0.505E+00    0.480E+01
RMM:   6    -0.114976794067E+04    0.13992E+02   -0.37544E+00 13218   0.188E+00    0.176E+01
RMM:   7    -0.114855628806E+04    0.12117E+01   -0.19241E+00 12535   0.135E+00    0.977E+00
RMM:   8    -0.114865580931E+04   -0.99521E-01   -0.79416E-01 13578   0.844E-01    0.656E+00
RMM:   9    -0.114859906778E+04    0.56742E-01   -0.30817E-01 13281   0.514E-01    0.491E+00
RMM:  10    -0.114873005973E+04   -0.13099E+00   -0.39627E-01 12697   0.517E-01    0.272E+00
RMM:  11    -0.114881299050E+04   -0.82931E-01   -0.78062E-02 12749   0.292E-01    0.252E+00
RMM:  12    -0.114885471959E+04   -0.41729E-01   -0.50557E-02 12879   0.215E-01    0.204E+00
RMM:  13    -0.114888722987E+04   -0.32510E-01   -0.54177E-02 13070   0.227E-01    0.150E+00
RMM:  14    -0.114889909446E+04   -0.11865E-01   -0.19510E-02 13015   0.136E-01    0.119E+00
RMM:  15    -0.114889816253E+04    0.93193E-03   -0.11496E-02 12831   0.103E-01    0.908E-01
RMM:  16    -0.114889145235E+04    0.67102E-02   -0.57216E-03 12773   0.627E-02    0.690E-01
RMM:  17    -0.114888729028E+04    0.41621E-02   -0.35565E-03 12026   0.486E-02    0.521E-01
RMM:  18    -0.114888537296E+04    0.19173E-02   -0.19248E-03 11562   0.358E-02    0.407E-01
RMM:  19    -0.114888407715E+04    0.12958E-02   -0.21564E-03 11663   0.388E-02    0.269E-01
RMM:  20    -0.114888366740E+04    0.40975E-03   -0.39251E-03 12383   0.539E-02    0.981E-02
RMM:  21    -0.114888396965E+04   -0.30225E-03   -0.13459E-03 11230   0.322E-02    0.472E-02
RMM:  22    -0.114888411304E+04   -0.14339E-03   -0.30188E-04  8725   0.168E-02    0.377E-02
RMM:  23    -0.114888424736E+04   -0.13432E-03   -0.15528E-04  8053   0.136E-02    0.368E-02
RMM:  24    -0.114888428748E+04   -0.40117E-04   -0.55579E-05  7339   0.921E-03
   3 F= -.11488843E+04 E0= -.11488843E+04  d E =-.620257E+01  mag=    12.0032
       N       E                     dE             d eps       ncg     rms          rms(c)
DAV:   1    -0.114318734509E+04    0.56969E+01   -0.12599E+03 12352   0.328E+01    0.166E+01
RMM:   2    -0.115423348430E+04   -0.11046E+02   -0.14484E+02 12303   0.118E+01    0.156E+01
RMM:   3    -0.115185844891E+04    0.23750E+01   -0.62797E+00 12806   0.323E+00    0.119E+01
RMM:   4    -0.115107606762E+04    0.78238E+00   -0.21461E+00 14095   0.115E+00    0.908E+00
RMM:   5    -0.115160089928E+04   -0.52483E+00   -0.21038E+00 12856   0.732E-01    0.102E+01
RMM:   6    -0.115091046576E+04    0.69043E+00   -0.82999E-01 13612   0.632E-01    0.380E+00
RMM:   7    -0.115093746647E+04   -0.27001E-01   -0.53730E-01 13414   0.504E-01    0.214E+00
RMM:   8    -0.115091204416E+04    0.25422E-01   -0.35867E-02 13798   0.218E-01    0.134E+00
RMM:   9    -0.115091066549E+04    0.13787E-02   -0.26397E-02 14563   0.102E-01    0.113E+00
RMM:  10    -0.115091275369E+04   -0.20882E-02   -0.89949E-03 13239   0.820E-02    0.579E-01
RMM:  11    -0.115091691135E+04   -0.41577E-02   -0.61090E-03 12797   0.653E-02    0.271E-01
RMM:  12    -0.115092146301E+04   -0.45517E-02   -0.20604E-03 11350   0.440E-02    0.797E-01
RMM:  13    -0.115092295997E+04   -0.14970E-02   -0.15774E-03 11033   0.338E-02    0.677E-01
RMM:  14    -0.115092528189E+04   -0.23219E-02   -0.26437E-03 11382   0.407E-02    0.444E-01
RMM:  15    -0.115092922940E+04   -0.39475E-02   -0.54922E-03 12376   0.601E-02    0.455E-01
RMM:  16    -0.115093169426E+04   -0.24649E-02   -0.92508E-03 12802   0.732E-02    0.159E-01
RMM:  17    -0.115093273252E+04   -0.10383E-02   -0.31376E-03 11619   0.442E-02    0.262E-01
RMM:  18    -0.115093333059E+04   -0.59808E-03   -0.13130E-03 10563   0.282E-02    0.365E-01
RMM:  19    -0.115093331747E+04    0.13128E-04   -0.19034E-04  8345   0.149E-02
   4 F= -.11509333E+04 E0= -.11509198E+04  d E =-.204903E+01  mag=    11.3675
       N       E                     dE             d eps       ncg     rms          rms(c)
DAV:   1    -0.115043925300E+04    0.49408E+00   -0.81313E+02 12360   0.219E+01    0.149E+01
RMM:   2    -0.115433909870E+04   -0.38998E+01   -0.50841E+01 12300   0.666E+00    0.155E+01
RMM:   3    -0.115420072830E+04    0.13837E+00   -0.29809E+00 13199   0.187E+00    0.123E+01
RMM:   4    -0.115411286847E+04    0.87860E-01   -0.10444E+00 14261   0.871E-01    0.101E+01
RMM:   5    -0.115431029341E+04   -0.19742E+00   -0.18520E+00 12567   0.102E+00    0.490E+00
RMM:   6    -0.115402147812E+04    0.28882E+00   -0.34371E-01 13360   0.620E-01    0.184E+00
RMM:   7    -0.115402244019E+04   -0.96208E-03   -0.18297E-01 13556   0.351E-01    0.961E-01
RMM:   8    -0.115403776240E+04   -0.15322E-01   -0.24444E-02 13950   0.172E-01    0.681E-01
RMM:   9    -0.115406086269E+04   -0.23100E-01   -0.14356E-02 13642   0.114E-01    0.426E-01
RMM:  10    -0.115407462828E+04   -0.13766E-01   -0.80137E-03 12859   0.899E-02    0.271E-01
RMM:  11    -0.115407878350E+04   -0.41552E-02   -0.27436E-03 12888   0.472E-02    0.219E-01
RMM:  12    -0.115408188334E+04   -0.30998E-02   -0.17892E-03 11538   0.387E-02    0.164E-01
RMM:  13    -0.115408402101E+04   -0.21377E-02   -0.14913E-03 11069   0.358E-02    0.141E-01
RMM:  14    -0.115408548011E+04   -0.14591E-02   -0.12344E-03 10617   0.311E-02    0.119E-01
RMM:  15    -0.115408703279E+04   -0.15527E-02   -0.19295E-03 11160   0.389E-02    0.888E-02
RMM:  16    -0.115408795063E+04   -0.91784E-03   -0.17385E-03 10861   0.364E-02    0.646E-02
RMM:  17    -0.115408840283E+04   -0.45220E-03   -0.12171E-03 10363   0.307E-02    0.377E-02
RMM:  18    -0.115408859438E+04   -0.19155E-03   -0.11412E-03 10351   0.301E-02    0.184E-02
RMM:  19    -0.115408863545E+04   -0.41071E-04   -0.12841E-04  7647   0.137E-02
   5 F= -.11540886E+04 E0= -.11540886E+04  d E =-.315532E+01  mag=     9.9990
       N       E                     dE             d eps       ncg     rms          rms(c)
DAV:   1    -0.115520135843E+04   -0.11128E+01   -0.40751E+02 12416   0.209E+01    0.703E+00
RMM:   2    -0.115637990573E+04   -0.11785E+01   -0.15627E+01 12294   0.472E+00    0.853E+00
RMM:   3    -0.115639516086E+04   -0.15255E-01   -0.74641E-01 13383   0.127E+00    0.695E+00
RMM:   4    -0.115638434478E+04    0.10816E-01   -0.35539E-01 12905   0.559E-01    0.445E+00
RMM:   5    -0.115630678540E+04    0.77559E-01   -0.13688E-01 12344   0.403E-01    0.123E+00
RMM:   6    -0.115630506861E+04    0.17168E-02   -0.21729E-02 14262   0.150E-01    0.748E-01
RMM:   7    -0.115630301157E+04    0.20570E-02   -0.42312E-03 15923   0.518E-02    0.451E-01
RMM:   8    -0.115630226526E+04    0.74631E-03   -0.37638E-03 12686   0.521E-02    0.189E-01
RMM:   9    -0.115630240030E+04   -0.13504E-03   -0.10704E-03 11203   0.350E-02    0.757E-02
RMM:  10    -0.115630246650E+04   -0.66202E-04   -0.21098E-04  8574   0.163E-02
   6 F= -.11563025E+04 E0= -.11563025E+04  d E =-.221383E+01  mag=     9.9999
       N       E                     dE             d eps       ncg     rms          rms(c)
DAV:   1    -0.115720958577E+04   -0.90719E+00   -0.14245E+02 12672   0.108E+01    0.439E+00
RMM:   2    -0.115759672490E+04   -0.38714E+00   -0.40163E+00 12316   0.211E+00    0.286E+00
RMM:   3    -0.115760745344E+04   -0.10729E-01   -0.24677E-01 12495   0.724E-01    0.172E+00
RMM:   4    -0.115758626705E+04    0.21186E-01   -0.96614E-02 13244   0.291E-01    0.855E-01
RMM:   5    -0.115758336993E+04    0.28971E-02   -0.19046E-02 13472   0.148E-01    0.388E-01
RMM:   6    -0.115758349171E+04   -0.12178E-03   -0.40341E-03 15346   0.513E-02    0.291E-01
RMM:   7    -0.115758359675E+04   -0.10504E-03   -0.90507E-04 12678   0.252E-02    0.153E-01
RMM:   8    -0.115758371208E+04   -0.11533E-03   -0.48693E-04 10775   0.213E-02    0.422E-02
RMM:   9    -0.115758374166E+04   -0.29583E-04   -0.15353E-04  8610   0.139E-02
   7 F= -.11575837E+04 E0= -.11575837E+04  d E =-.128128E+01  mag=    10.0000
       N       E                     dE             d eps       ncg     rms          rms(c)
DAV:   1    -0.115788175964E+04   -0.29805E+00   -0.24826E+02 12456   0.142E+01    0.599E+00
RMM:   2    -0.115873445178E+04   -0.85269E+00   -0.91925E+00 12322   0.306E+00    0.463E+00
RMM:   3    -0.115871672824E+04    0.17724E-01   -0.57363E-01 12900   0.113E+00    0.292E+00
RMM:   4    -0.115869378167E+04    0.22947E-01   -0.27158E-01 13007   0.514E-01    0.151E+00
RMM:   5    -0.115869089831E+04    0.28834E-02   -0.32463E-02 14442   0.224E-01    0.755E-01
RMM:   6    -0.115869077615E+04    0.12216E-03   -0.12811E-02 17478   0.825E-02    0.371E-01
RMM:   7    -0.115869125070E+04   -0.47455E-03   -0.34985E-03 15824   0.527E-02    0.208E-01
RMM:   8    -0.115869154060E+04   -0.28990E-03   -0.12232E-03 13756   0.322E-02    0.913E-02
RMM:   9    -0.115869165050E+04   -0.10989E-03   -0.53000E-04 11182   0.192E-02    0.438E-02
RMM:  10    -0.115869170593E+04   -0.55431E-04   -0.28438E-04  9840   0.147E-02
   8 F= -.11586917E+04 E0= -.11586917E+04  d E =-.110796E+01  mag=    10.0000
       N       E                     dE             d eps       ncg     rms          rms(c)
DAV:   1    -0.115854636205E+04    0.14529E+00   -0.36553E+01 13040   0.653E+00    0.344E+00
RMM:   2    -0.115866983563E+04   -0.12347E+00   -0.11436E+00 12288   0.134E+00    0.278E+00
RMM:   3    -0.115867444827E+04   -0.46126E-02   -0.64021E-02 12812   0.403E-01    0.169E+00
RMM:   4    -0.115866538632E+04    0.90620E-02   -0.37906E-02 13194   0.198E-01    0.831E-01
RMM:   5    -0.115866420574E+04    0.11806E-02   -0.11589E-02 13253   0.110E-01    0.421E-01
RMM:   6    -0.115866387092E+04    0.33482E-03   -0.13222E-03 12277   0.379E-02    0.183E-01
RMM:   7    -0.115866386589E+04    0.50329E-05   -0.45350E-04 10029   0.208E-02    0.122E-01
RMM:   8    -0.115866391422E+04   -0.48334E-04   -0.15764E-04  8305   0.173E-02
   9 F= -.11586639E+04 E0= -.11586639E+04  d E =0.277917E-01  mag=    10.0000
       N       E                     dE             d eps       ncg     rms          rms(c)
DAV:   1    -0.115879820717E+04   -0.13434E+00   -0.35205E+01 12744   0.611E+00    0.247E+00
RMM:   2    -0.115889720690E+04   -0.99000E-01   -0.10907E+00 12292   0.120E+00    0.226E+00
RMM:   3    -0.115889423275E+04    0.29741E-02   -0.60642E-02 13476   0.344E-01    0.157E+00
RMM:   4    -0.115888896668E+04    0.52661E-02   -0.30663E-02 13145   0.176E-01    0.545E-01
RMM:   5    -0.115888866299E+04    0.30369E-03   -0.49982E-03 13537   0.821E-02    0.315E-01
RMM:   6    -0.115888863279E+04    0.30203E-04   -0.86683E-04 12318   0.270E-02    0.144E-01
RMM:   7    -0.115888862739E+04    0.53976E-05   -0.29370E-04  9707   0.180E-02    0.743E-02
RMM:   8    -0.115888865714E+04   -0.29751E-04   -0.14208E-04  8139   0.149E-02
  10 F= -.11588887E+04 E0= -.11588887E+04  d E =-.224743E+00  mag=    10.0000
       N       E                     dE             d eps       ncg     rms          rms(c)
DAV:   1    -0.115887517038E+04    0.13457E-01   -0.77737E+00 12952   0.300E+00    0.147E+00
RMM:   2    -0.115889522544E+04   -0.20055E-01   -0.26023E-01 12318   0.608E-01    0.135E+00
RMM:   3    -0.115889318430E+04    0.20411E-02   -0.14706E-02 13002   0.179E-01    0.897E-01
RMM:   4    -0.115889205220E+04    0.11321E-02   -0.94408E-03 12799   0.989E-02    0.311E-01
RMM:   5    -0.115889178314E+04    0.26907E-03   -0.17919E-03 11828   0.487E-02    0.201E-01
RMM:   6    -0.115889178582E+04   -0.26826E-05   -0.25071E-04  9045   0.164E-02    0.850E-02
RMM:   7    -0.115889180411E+04   -0.18286E-04   -0.82987E-05  7683   0.117E-02    0.469E-02
RMM:   8    -0.115889183707E+04   -0.32959E-04   -0.61988E-05  7408   0.999E-03
  11 F= -.11588918E+04 E0= -.11588918E+04  d E =-.317992E-02  mag=    10.0000
       N       E                     dE             d eps       ncg     rms          rms(c)
DAV:   1    -0.115849858252E+04    0.39322E+00   -0.16081E+02 12696   0.135E+01    0.485E+00
RMM:   2    -0.115900185543E+04   -0.50327E+00   -0.54686E+00 12298   0.271E+00    0.489E+00
RMM:   3    -0.115899761417E+04    0.42413E-02   -0.29713E-01 14022   0.789E-01    0.385E+00
RMM:   4    -0.115896826718E+04    0.29347E-01   -0.15257E-01 13590   0.389E-01    0.137E+00
RMM:   5    -0.115896898417E+04   -0.71699E-03   -0.23923E-02 14224   0.189E-01    0.597E-01
RMM:   6    -0.115896860170E+04    0.38247E-03   -0.39251E-03 17815   0.625E-02    0.300E-01
RMM:   7    -0.115896834995E+04    0.25176E-03   -0.17854E-03 16230   0.360E-02    0.144E-01
RMM:   8    -0.115896830913E+04    0.40820E-04   -0.92606E-04 13642   0.283E-02
  12 F= -.11589683E+04 E0= -.11589683E+04  d E =-.764721E-01  mag=    10.0000
       N       E                     dE             d eps       ncg     rms          rms(c)
DAV:   1    -0.115893119640E+04    0.37154E-01   -0.60710E+01 12456   0.807E+00    0.415E+00
RMM:   2    -0.115912136920E+04   -0.19017E+00   -0.22505E+00 12291   0.168E+00    0.370E+00
RMM:   3    -0.115911293268E+04    0.84365E-02   -0.11746E-01 13066   0.450E-01    0.247E+00
RMM:   4    -0.115910705634E+04    0.58763E-02   -0.58961E-02 13030   0.239E-01    0.662E-01
RMM:   5    -0.115910620409E+04    0.85225E-03   -0.86433E-03 14248   0.103E-01    0.286E-01
RMM:   6    -0.115910620997E+04   -0.58860E-05   -0.13261E-03 13403   0.323E-02    0.189E-01
RMM:   7    -0.115910632355E+04   -0.11357E-03   -0.56746E-04 11043   0.226E-02    0.766E-02
RMM:   8    -0.115910639997E+04   -0.76425E-04   -0.20484E-04  8879   0.167E-02
  13 F= -.11591064E+04 E0= -.11591064E+04  d E =-.138091E+00  mag=    10.0000
       N       E                     dE             d eps       ncg     rms          rms(c)
DAV:   1    -0.115913246351E+04   -0.26140E-01   -0.76186E+00 12832   0.310E+00    0.891E-01
RMM:   2    -0.115915032673E+04   -0.17863E-01   -0.22006E-01 12311   0.588E-01    0.818E-01
RMM:   3    -0.115914991228E+04    0.41446E-03   -0.12401E-02 13043   0.181E-01    0.571E-01
RMM:   4    -0.115914911594E+04    0.79634E-03   -0.45500E-03 13204   0.731E-02    0.267E-01
RMM:   5    -0.115914891010E+04    0.20584E-03   -0.11717E-03 11756   0.398E-02    0.116E-01
RMM:   6    -0.115914891076E+04   -0.66323E-06   -0.12205E-04  8059   0.145E-02    0.538E-02
RMM:   7    -0.115914892541E+04   -0.14652E-04   -0.64248E-05  7403   0.108E-02    0.317E-02
RMM:   8    -0.115914895290E+04   -0.27488E-04   -0.45719E-05  7209   0.960E-03
  14 F= -.11591490E+04 E0= -.11591490E+04  d E =-.425529E-01  mag=    10.0000
       N       E                     dE             d eps       ncg     rms          rms(c)
DAV:   1    -0.115915604365E+04   -0.71182E-02   -0.26183E+00 12864   0.185E+00    0.513E-01
RMM:   2    -0.115916234580E+04   -0.63021E-02   -0.75451E-02 12335   0.346E-01    0.484E-01
RMM:   3    -0.115916221622E+04    0.12958E-03   -0.42029E-03 13213   0.109E-01    0.348E-01
RMM:   4    -0.115916203368E+04    0.18254E-03   -0.15614E-03 12266   0.420E-02    0.175E-01
RMM:   5    -0.115916197202E+04    0.61663E-04   -0.44620E-04 10360   0.252E-02    0.544E-02
RMM:   6    -0.115916197920E+04   -0.71826E-05   -0.61071E-05  7354   0.125E-02    0.313E-02
RMM:   7    -0.115916199482E+04   -0.15620E-04   -0.39795E-05  7132   0.805E-03    0.236E-02
RMM:   8    -0.115916201841E+04   -0.23592E-04   -0.28813E-05  6992   0.814E-03
  15 F= -.11591620E+04 E0= -.11591620E+04  d E =-.130655E-01  mag=    10.0000
       N       E                     dE             d eps       ncg     rms          rms(c)
DAV:   1    -0.115916378189E+04   -0.17871E-02   -0.23586E+00 12816   0.178E+00    0.398E-01
RMM:   2    -0.115916914706E+04   -0.53652E-02   -0.61179E-02 12357   0.312E-01    0.316E-01
RMM:   3    -0.115916914190E+04    0.51547E-05   -0.33670E-03 12786   0.106E-01    0.216E-01
RMM:   4    -0.115916903416E+04    0.10775E-03   -0.10559E-03 12906   0.351E-02    0.118E-01
RMM:   5    -0.115916903217E+04    0.19834E-05   -0.31626E-04  9158   0.212E-02    0.517E-02
RMM:   6    -0.115916904878E+04   -0.16602E-04   -0.62755E-05  7254   0.127E-02    0.265E-02
RMM:   7    -0.115916906824E+04   -0.19469E-04   -0.42710E-05  7100   0.884E-03    0.205E-02
RMM:   8    -0.115916910011E+04   -0.31866E-04   -0.36309E-05  7010   0.841E-03
  16 F= -.11591691E+04 E0= -.11591691E+04  d E =-.708170E-02  mag=    10.0000
       N       E                     dE             d eps       ncg     rms          rms(c)
DAV:   1    -0.115916794004E+04    0.11282E-02   -0.31307E+00 12800   0.207E+00    0.431E-01
RMM:   2    -0.115917499156E+04   -0.70515E-02   -0.78122E-02 12437   0.353E-01    0.292E-01
RMM:   3    -0.115917505778E+04   -0.66228E-04   -0.42424E-03 12632   0.125E-01    0.194E-01
RMM:   4    -0.115917495305E+04    0.10474E-03   -0.11984E-03 14036   0.383E-02    0.110E-01
RMM:   5    -0.115917496417E+04   -0.11123E-04   -0.35667E-04  9256   0.209E-02    0.608E-02
RMM:   6    -0.115917498552E+04   -0.21352E-04   -0.80755E-05  7270   0.133E-02    0.282E-02
RMM:   7    -0.115917500535E+04   -0.19824E-04   -0.50197E-05  7120   0.967E-03    0.214E-02
RMM:   8    -0.115917502929E+04   -0.23939E-04   -0.35780E-05  6962   0.850E-03
  17 F= -.11591750E+04 E0= -.11591750E+04  d E =-.592918E-02  mag=    10.0000
       N       E                     dE             d eps       ncg     rms          rms(c)
DAV:   1    -0.115917130858E+04    0.36968E-02   -0.36642E+00 12728   0.223E+00    0.453E-01
RMM:   2    -0.115917953142E+04   -0.82228E-02   -0.89723E-02 12514   0.376E-01    0.280E-01
RMM:   3    -0.115917957920E+04   -0.47781E-04   -0.47578E-03 12584   0.134E-01    0.180E-01
RMM:   4    -0.115917945803E+04    0.12117E-03   -0.13978E-03 14490   0.410E-02    0.949E-02
RMM:   5    -0.115917949570E+04   -0.37674E-04   -0.31547E-04  8906   0.199E-02    0.336E-02
RMM:   6    -0.115917952159E+04   -0.25889E-04   -0.88655E-05  7309   0.131E-02    0.237E-02
RMM:   7    -0.115917954500E+04   -0.23409E-04   -0.57026E-05  7151   0.102E-02    0.216E-02
RMM:   8    -0.115917957722E+04   -0.32219E-04   -0.45211E-05  7011   0.896E-03
  18 F= -.11591796E+04 E0= -.11591796E+04  d E =-.454793E-02  mag=    10.0000
       N       E                     dE             d eps       ncg     rms          rms(c)
DAV:   1    -0.115917527994E+04    0.42651E-02   -0.32415E+00 12736   0.210E+00    0.410E-01
RMM:   2    -0.115918258052E+04   -0.73006E-02   -0.78460E-02 12512   0.351E-01    0.249E-01
RMM:   3    -0.115918263084E+04   -0.50315E-04   -0.41664E-03 12599   0.126E-01    0.161E-01
RMM:   4    -0.115918251922E+04    0.11162E-03   -0.11529E-03 13966   0.380E-02    0.866E-02
RMM:   5    -0.115918255459E+04   -0.35370E-04   -0.29796E-04  8733   0.202E-02    0.323E-02
RMM:   6    -0.115918258173E+04   -0.27145E-04   -0.85712E-05  7278   0.131E-02    0.225E-02
RMM:   7    -0.115918261364E+04   -0.31902E-04   -0.62234E-05  7138   0.104E-02    0.212E-02
RMM:   8    -0.115918264321E+04   -0.29571E-04   -0.42186E-05  6964   0.858E-03
  19 F= -.11591826E+04 E0= -.11591826E+04  d E =-.306599E-02  mag=    10.0000
       N       E                     dE             d eps       ncg     rms          rms(c)
DAV:   1    -0.115918123500E+04    0.13786E-02   -0.12615E+00 12880   0.130E+00    0.249E-01
RMM:   2    -0.115918413979E+04   -0.29048E-02   -0.30942E-02 12539   0.221E-01    0.159E-01
RMM:   3    -0.115918417229E+04   -0.32500E-04   -0.16515E-03 12346   0.774E-02    0.106E-01
RMM:   4    -0.115918414800E+04    0.24291E-04   -0.43417E-04  9855   0.240E-02    0.611E-02
RMM:   5    -0.115918418038E+04   -0.32385E-04   -0.13458E-04  7353   0.163E-02    0.263E-02
RMM:   6    -0.115918420300E+04   -0.22616E-04   -0.50530E-05  7062   0.103E-02    0.220E-02
RMM:   7    -0.115918422168E+04   -0.18680E-04   -0.31817E-05  6884   0.818E-03    0.197E-02
RMM:   8    -0.115918425250E+04   -0.30815E-04   -0.29183E-05  6789   0.715E-03
  20 F= -.11591843E+04 E0= -.11591843E+04  d E =-.160929E-02  mag=    10.0000
       N       E                     dE             d eps       ncg     rms          rms(c)
DAV:   1    -0.115918291020E+04    0.13115E-02   -0.12023E+00 12784   0.127E+00    0.239E-01
RMM:   2    -0.115918566652E+04   -0.27563E-02   -0.28913E-02 12578   0.213E-01    0.143E-01
RMM:   3    -0.115918569416E+04   -0.27641E-04   -0.14800E-03 12045   0.730E-02    0.935E-02
RMM:   4    -0.115918566912E+04    0.25041E-04   -0.37318E-04  9250   0.227E-02    0.532E-02
RMM:   5    -0.115918570006E+04   -0.30940E-04   -0.11670E-04  7252   0.152E-02    0.260E-02
RMM:   6    -0.115918572178E+04   -0.21721E-04   -0.46467E-05  7043   0.999E-03    0.207E-02
RMM:   7    -0.115918574107E+04   -0.19289E-04   -0.29501E-05  6851   0.775E-03    0.192E-02
RMM:   8    -0.115918576909E+04   -0.28018E-04   -0.25876E-05  6673   0.688E-03
  21 F= -.11591858E+04 E0= -.11591858E+04  d E =-.151659E-02  mag=    10.0000
       N       E                     dE             d eps       ncg     rms          rms(c)
DAV:   1    -0.115918482224E+04    0.91883E-03   -0.95607E-01 12728   0.113E+00    0.210E-01
RMM:   2    -0.115918702230E+04   -0.22001E-02   -0.23138E-02 12739   0.190E-01    0.127E-01
RMM:   3    -0.115918703006E+04   -0.77560E-05   -0.11248E-03 11656   0.626E-02    0.823E-02
RMM:   4    -0.115918701211E+04    0.17947E-04   -0.27674E-04  8218   0.205E-02    0.460E-02
RMM:   5    -0.115918704534E+04   -0.33231E-04   -0.97927E-05  7178   0.139E-02    0.233E-02
RMM:   6    -0.115918706464E+04   -0.19300E-04   -0.39530E-05  7008   0.928E-03    0.199E-02
RMM:   7    -0.115918708515E+04   -0.20508E-04   -0.27003E-05  6803   0.718E-03    0.189E-02
RMM:   8    -0.115918711013E+04   -0.24977E-04   -0.22167E-05  6548   0.639E-03
  22 F= -.11591871E+04 E0= -.11591871E+04  d E =-.134104E-02  mag=    10.0000
       N       E                     dE             d eps       ncg     rms          rms(c)
DAV:   1    -0.115918622344E+04    0.86171E-03   -0.81026E-01 12720   0.104E+00    0.193E-01
RMM:   2    -0.115918808643E+04   -0.18630E-02   -0.19590E-02 12738   0.174E-01    0.117E-01
RMM:   3    -0.115918809250E+04   -0.60647E-05   -0.93491E-04 11216   0.573E-02    0.765E-02
RMM:   4    -0.115918807946E+04    0.13035E-04   -0.21876E-04  7728   0.190E-02    0.435E-02
RMM:   5    -0.115918811170E+04   -0.32231E-04   -0.87041E-05  7139   0.130E-02    0.274E-02
RMM:   6    -0.115918812823E+04   -0.16531E-04   -0.35194E-05  6977   0.885E-03    0.210E-02
RMM:   7    -0.115918814663E+04   -0.18408E-04   -0.23905E-05  6773   0.676E-03    0.190E-02
RMM:   8    -0.115918816260E+04   -0.15969E-04   -0.16150E-05  6278   0.570E-03
  23 F= -.11591882E+04 E0= -.11591882E+04  d E =-.105248E-02  mag=    10.0000
