       N       E                     dE             d eps       ncg     rms          rms(c)
DAV:   1    -0.115724957135E+04   -0.11572E+04   -0.33147E-06  3824   0.237E-03    0.153E-03
RMM:   2    -0.115724957153E+04   -0.18424E-06   -0.51847E-07  1287   0.194E-03    0.119E-03
RMM:   3    -0.115724957161E+04   -0.74564E-07   -0.91797E-08   588   0.155E-03    0.113E-03
RMM:   4    -0.115724957167E+04   -0.58659E-07   -0.61111E-08   462   0.154E-03    0.939E-04
RMM:   5    -0.115724957177E+04   -0.10102E-06   -0.88323E-08   444   0.159E-03    0.101E-03
RMM:   6    -0.115724957199E+04   -0.21940E-06   -0.36178E-07   747   0.180E-03    0.784E-04
RMM:   7    -0.115724957211E+04   -0.12245E-06   -0.24254E-07   580   0.166E-03    0.887E-04
RMM:   8    -0.115724957215E+04   -0.42404E-07   -0.76372E-08   406   0.158E-03
   1 F= -.11572496E+04 E0= -.11572496E+04  d E =-.115725E+04  mag=    14.0000
       N       E                     dE             d eps       ncg     rms          rms(c)
DAV:   1    -0.115724955430E+04    0.17807E-04   -0.23147E-01  6288   0.558E-01    0.193E-01
RMM:   2    -0.115725003592E+04   -0.48161E-03   -0.76115E-03  6140   0.113E-01    0.188E-01
RMM:   3    -0.115724998935E+04    0.46568E-04   -0.30729E-04  4646   0.335E-02    0.126E-01
RMM:   4    -0.115724991975E+04    0.69601E-04   -0.21463E-04  4110   0.175E-02    0.632E-02
RMM:   5    -0.115724990491E+04    0.14833E-04   -0.62605E-05  3642   0.116E-02    0.414E-02
RMM:   6    -0.115724990618E+04   -0.12666E-05   -0.17116E-05  3330   0.648E-03    0.164E-02
RMM:   7    -0.115724990660E+04   -0.42139E-06   -0.80689E-06  3033   0.418E-03    0.119E-02
RMM:   8    -0.115724990704E+04   -0.43905E-06   -0.45074E-06  2853   0.346E-03
   2 F= -.11572499E+04 E0= -.11572499E+04  d E =-.334888E-03  mag=    14.0000
       N       E                     dE             d eps       ncg     rms          rms(c)
DAV:   1    -0.115725033666E+04   -0.43006E-03   -0.57676E-02  6080   0.273E-01    0.102E-01
RMM:   2    -0.115725040820E+04   -0.71534E-04   -0.21678E-03  6022   0.590E-02    0.116E-01
RMM:   3    -0.115725038050E+04    0.27701E-04   -0.78307E-05  3573   0.172E-02    0.866E-02
RMM:   4    -0.115725035330E+04    0.27195E-04   -0.74268E-05  3545   0.102E-02    0.475E-02
RMM:   5    -0.115725034463E+04    0.86711E-05   -0.30056E-05  3347   0.742E-03    0.272E-02
RMM:   6    -0.115725034468E+04   -0.47061E-07   -0.72747E-06  2862   0.450E-03    0.129E-02
RMM:   7    -0.115725034468E+04    0.12515E-08   -0.29751E-06  2205   0.269E-03    0.871E-03
RMM:   8    -0.115725034478E+04   -0.10121E-06   -0.15496E-06  1970   0.243E-03
   3 F= -.11572503E+04 E0= -.11572503E+04  d E =-.437738E-03  mag=    14.0000
       N       E                     dE             d eps       ncg     rms          rms(c)
DAV:   1    -0.115725046269E+04   -0.11801E-03   -0.30604E-02  6112   0.206E-01    0.503E-02
RMM:   2    -0.115725053051E+04   -0.67819E-04   -0.82954E-04  5975   0.371E-02    0.422E-02
RMM:   3    -0.115725052779E+04    0.27261E-05   -0.35670E-05  3261   0.131E-02    0.278E-02
RMM:   4    -0.115725052521E+04    0.25760E-05   -0.17340E-05  3163   0.517E-03    0.164E-02
RMM:   5    -0.115725052479E+04    0.42174E-06   -0.45938E-06  2702   0.345E-03    0.554E-03
RMM:   6    -0.115725052494E+04   -0.15210E-06   -0.12541E-06  1511   0.218E-03    0.290E-03
RMM:   7    -0.115725052500E+04   -0.59619E-07   -0.48928E-07  1163   0.215E-03    0.158E-03
RMM:   8    -0.115725052504E+04   -0.43961E-07   -0.10481E-07   760   0.184E-03
   4 F= -.11572505E+04 E0= -.11572505E+04  d E =-.180264E-03  mag=    14.0000
