       N       E                     dE             d eps       ncg     rms          rms(c)
DAV:   1    -0.115705852611E+04   -0.11571E+04   -0.14079E-05  3832   0.159E-02    0.331E-02
RMM:   2    -0.115705852683E+04   -0.72087E-06   -0.26888E-05  3172   0.794E-03    0.573E-02
RMM:   3    -0.115705852810E+04   -0.12659E-05   -0.67998E-06  2642   0.360E-03    0.847E-03
RMM:   4    -0.115705853014E+04   -0.20371E-05   -0.26816E-06  1831   0.268E-03    0.688E-03
RMM:   5    -0.115705853071E+04   -0.57605E-06   -0.12483E-06  1297   0.205E-03    0.562E-03
RMM:   6    -0.115705853204E+04   -0.13283E-05   -0.93489E-07  1192   0.214E-03    0.600E-03
RMM:   7    -0.115705853239E+04   -0.34719E-06   -0.31284E-07   877   0.184E-03    0.576E-03
RMM:   8    -0.115705853156E+04    0.82715E-06   -0.21191E-07   746   0.181E-03
   1 F= -.11570585E+04 E0= -.11570585E+04  d E =-.115706E+04  mag=    14.0000
       N       E                     dE             d eps       ncg     rms          rms(c)
DAV:   1    -0.115703057480E+04    0.27958E-01   -0.11929E+01  6328   0.367E+00    0.192E+00
RMM:   2    -0.115708141936E+04   -0.50845E-01   -0.33342E-01  6159   0.758E-01    0.133E+00
RMM:   3    -0.115708665961E+04   -0.52402E-02   -0.20151E-02  6286   0.253E-01    0.662E-01
RMM:   4    -0.115708458643E+04    0.20732E-02   -0.92261E-03  6563   0.110E-01    0.328E-01
RMM:   5    -0.115708445629E+04    0.13014E-03   -0.20668E-03  5871   0.552E-02    0.153E-01
RMM:   6    -0.115708454488E+04   -0.88594E-04   -0.33407E-04  4702   0.205E-02    0.934E-02
RMM:   7    -0.115708467156E+04   -0.12668E-03   -0.12371E-04  4053   0.147E-02    0.635E-02
RMM:   8    -0.115708486719E+04   -0.19563E-03   -0.14966E-04  3928   0.140E-02    0.435E-02
RMM:   9    -0.115708498269E+04   -0.11550E-03   -0.77766E-05  3708   0.969E-03    0.351E-02
RMM:  10    -0.115708505384E+04   -0.71149E-04   -0.40725E-05  3575   0.778E-03
   2 F= -.11570851E+04 E0= -.11570851E+04  d E =-.265223E-01  mag=    14.0000
       N       E                     dE             d eps       ncg     rms          rms(c)
DAV:   1    -0.115709501865E+04   -0.10036E-01   -0.23026E+00  6608   0.168E+00    0.695E-01
RMM:   2    -0.115709958811E+04   -0.45695E-02   -0.79362E-02  6148   0.360E-01    0.629E-01
RMM:   3    -0.115709918047E+04    0.40764E-03   -0.42486E-03  6343   0.109E-01    0.386E-01
RMM:   4    -0.115709833953E+04    0.84094E-03   -0.32153E-03  6181   0.596E-02    0.200E-01
RMM:   5    -0.115709822408E+04    0.11545E-03   -0.70605E-04  5286   0.366E-02    0.812E-02
RMM:   6    -0.115709826809E+04   -0.44008E-04   -0.10430E-04  4022   0.126E-02    0.565E-02
RMM:   7    -0.115709834288E+04   -0.74795E-04   -0.60398E-05  3713   0.992E-03    0.423E-02
RMM:   8    -0.115709843851E+04   -0.95632E-04   -0.62261E-05  3632   0.961E-03
   3 F= -.11570984E+04 E0= -.11570984E+04  d E =-.133847E-01  mag=    14.0000
       N       E                     dE             d eps       ncg     rms          rms(c)
DAV:   1    -0.115709372626E+04    0.46166E-02   -0.21163E+00  6360   0.152E+00    0.796E-01
RMM:   2    -0.115710390942E+04   -0.10183E-01   -0.47834E-02  6208   0.282E-01    0.453E-01
RMM:   3    -0.115710540054E+04   -0.14911E-02   -0.32759E-03  6375   0.101E-01    0.199E-01
RMM:   4    -0.115710542819E+04   -0.27647E-04   -0.96131E-04  5616   0.367E-02    0.987E-02
RMM:   5    -0.115710555541E+04   -0.12722E-03   -0.27984E-04  4257   0.236E-02    0.568E-02
RMM:   6    -0.115710562688E+04   -0.71472E-04   -0.90635E-05  3626   0.126E-02    0.443E-02
RMM:   7    -0.115710568534E+04   -0.58461E-04   -0.41556E-05  3527   0.884E-03    0.353E-02
RMM:   8    -0.115710584150E+04   -0.15616E-03   -0.96597E-05  3559   0.120E-02    0.306E-02
RMM:   9    -0.115710595706E+04   -0.11556E-03   -0.86664E-05  3511   0.916E-03    0.275E-02
RMM:  10    -0.115710601137E+04   -0.54310E-04   -0.36923E-05  3193   0.589E-03
   4 F= -.11571060E+04 E0= -.11571060E+04  d E =-.757285E-02  mag=    14.0000
       N       E                     dE             d eps       ncg     rms          rms(c)
DAV:   1    -0.115710507119E+04    0.88586E-03   -0.98627E-01  6320   0.106E+00    0.471E-01
RMM:   2    -0.115710919144E+04   -0.41202E-02   -0.23002E-02  6249   0.193E-01    0.265E-01
RMM:   3    -0.115710972044E+04   -0.52900E-03   -0.15024E-03  6051   0.681E-02    0.122E-01
RMM:   4    -0.115710976552E+04   -0.45083E-04   -0.38541E-04  4580   0.248E-02    0.615E-02
RMM:   5    -0.115710987329E+04   -0.10777E-03   -0.15511E-04  3750   0.168E-02    0.338E-02
RMM:   6    -0.115710992996E+04   -0.56667E-04   -0.52774E-05  3534   0.976E-03    0.290E-02
RMM:   7    -0.115710999050E+04   -0.60544E-04   -0.35648E-05  3444   0.727E-03    0.266E-02
RMM:   8    -0.115711011384E+04   -0.12334E-03   -0.80147E-05  3460   0.101E-02    0.226E-02
RMM:   9    -0.115711024462E+04   -0.13078E-03   -0.12434E-04  3447   0.107E-02    0.206E-02
RMM:  10    -0.115711033781E+04   -0.93188E-04   -0.95113E-05  3181   0.842E-03
   5 F= -.11571103E+04 E0= -.11571103E+04  d E =-.432644E-02  mag=    14.0000
       N       E                     dE             d eps       ncg     rms          rms(c)
DAV:   1    -0.115711001198E+04    0.23263E-03   -0.79336E-01  6368   0.957E-01    0.386E-01
RMM:   2    -0.115711308884E+04   -0.30769E-02   -0.18378E-02  6305   0.171E-01    0.212E-01
RMM:   3    -0.115711343735E+04   -0.34851E-03   -0.11333E-03  5670   0.595E-02    0.989E-02
RMM:   4    -0.115711344565E+04   -0.82985E-05   -0.24211E-04  4007   0.203E-02    0.500E-02
RMM:   5    -0.115711349680E+04   -0.51142E-04   -0.11013E-04  3622   0.136E-02    0.264E-02
RMM:   6    -0.115711352128E+04   -0.24484E-04   -0.34181E-05  3474   0.883E-03    0.252E-02
RMM:   7    -0.115711353728E+04   -0.16001E-04   -0.17983E-05  3363   0.562E-03    0.188E-02
RMM:   8    -0.115711359325E+04   -0.55973E-04   -0.37843E-05  3359   0.807E-03
   6 F= -.11571136E+04 E0= -.11571136E+04  d E =-.325545E-02  mag=    14.0000
       N       E                     dE             d eps       ncg     rms          rms(c)
DAV:   1    -0.115711248045E+04    0.10568E-02   -0.94507E-01  6232   0.105E+00    0.385E-01
RMM:   2    -0.115711577992E+04   -0.32995E-02   -0.21898E-02  6416   0.186E-01    0.214E-01
RMM:   3    -0.115711607711E+04   -0.29719E-03   -0.12336E-03  5774   0.612E-02    0.104E-01
RMM:   4    -0.115711607752E+04   -0.40147E-06   -0.27610E-04  4111   0.216E-02    0.519E-02
RMM:   5    -0.115711613417E+04   -0.56656E-04   -0.12959E-04  3643   0.146E-02    0.240E-02
RMM:   6    -0.115711616199E+04   -0.27814E-04   -0.38142E-05  3484   0.924E-03    0.222E-02
RMM:   7    -0.115711618110E+04   -0.19109E-04   -0.21614E-05  3382   0.618E-03    0.193E-02
RMM:   8    -0.115711624302E+04   -0.61921E-04   -0.44695E-05  3384   0.866E-03
   7 F= -.11571162E+04 E0= -.11571162E+04  d E =-.264976E-02  mag=    14.0000
       N       E                     dE             d eps       ncg     rms          rms(c)
DAV:   1    -0.115711443373E+04    0.17474E-02   -0.11517E+00  6296   0.116E+00    0.398E-01
RMM:   2    -0.115711822955E+04   -0.37958E-02   -0.26785E-02  6374   0.205E-01    0.225E-01
RMM:   3    -0.115711854418E+04   -0.31463E-03   -0.15525E-03  5995   0.680E-02    0.114E-01
RMM:   4    -0.115711853962E+04    0.45615E-05   -0.32889E-04  4336   0.229E-02    0.587E-02
RMM:   5    -0.115711859979E+04   -0.60173E-04   -0.15625E-04  3706   0.160E-02    0.263E-02
RMM:   6    -0.115711862922E+04   -0.29423E-04   -0.43267E-05  3505   0.100E-02    0.270E-02
RMM:   7    -0.115711864593E+04   -0.16716E-04   -0.22965E-05  3401   0.649E-03    0.202E-02
RMM:   8    -0.115711871643E+04   -0.70497E-04   -0.53869E-05  3428   0.964E-03
   8 F= -.11571187E+04 E0= -.11571187E+04  d E =-.247341E-02  mag=    14.0000
       N       E                     dE             d eps       ncg     rms          rms(c)
DAV:   1    -0.115711723497E+04    0.14110E-02   -0.10305E+00  6296   0.111E+00    0.340E-01
RMM:   2    -0.115712033542E+04   -0.31005E-02   -0.23983E-02  6411   0.194E-01    0.194E-01
RMM:   3    -0.115712054061E+04   -0.20518E-03   -0.13511E-03  5813   0.626E-02    0.102E-01
RMM:   4    -0.115712053430E+04    0.63109E-05   -0.28776E-04  4153   0.217E-02    0.520E-02
RMM:   5    -0.115712059135E+04   -0.57057E-04   -0.13739E-04  3651   0.148E-02    0.237E-02
RMM:   6    -0.115712061972E+04   -0.28365E-04   -0.39846E-05  3494   0.944E-03    0.223E-02
RMM:   7    -0.115712063887E+04   -0.19151E-04   -0.22759E-05  3386   0.632E-03    0.193E-02
RMM:   8    -0.115712070766E+04   -0.68793E-04   -0.53561E-05  3428   0.935E-03
   9 F= -.11571207E+04 E0= -.11571207E+04  d E =-.199123E-02  mag=    14.0000
       N       E                     dE             d eps       ncg     rms          rms(c)
DAV:   1    -0.115712041579E+04    0.22308E-03   -0.48478E-01  6416   0.766E-01    0.215E-01
RMM:   2    -0.115712180248E+04   -0.13867E-02   -0.11385E-02  6419   0.134E-01    0.123E-01
RMM:   3    -0.115712188143E+04   -0.78943E-04   -0.59251E-04  4722   0.427E-02    0.680E-02
RMM:   4    -0.115712189237E+04   -0.10945E-04   -0.14314E-04  3637   0.159E-02    0.367E-02
RMM:   5    -0.115712193501E+04   -0.42641E-04   -0.78892E-05  3540   0.114E-02    0.208E-02
RMM:   6    -0.115712195464E+04   -0.19627E-04   -0.27561E-05  3415   0.747E-03    0.195E-02
RMM:   7    -0.115712196893E+04   -0.14290E-04   -0.15512E-05  3170   0.545E-03    0.162E-02
RMM:   8    -0.115712202041E+04   -0.51477E-04   -0.38846E-05  3264   0.771E-03
  10 F= -.11571220E+04 E0= -.11571220E+04  d E =-.131274E-02  mag=    14.0000
       N       E                     dE             d eps       ncg     rms          rms(c)
DAV:   1    -0.115712117896E+04    0.78997E-03   -0.64129E-01  6304   0.880E-01    0.245E-01
RMM:   2    -0.115712300986E+04   -0.18309E-02   -0.14987E-02  6434   0.153E-01    0.139E-01
RMM:   3    -0.115712310327E+04   -0.93406E-04   -0.75894E-04  5075   0.482E-02    0.756E-02
RMM:   4    -0.115712310181E+04    0.14598E-05   -0.15657E-04  3702   0.172E-02    0.404E-02
RMM:   5    -0.115712313836E+04   -0.36551E-04   -0.88347E-05  3558   0.120E-02    0.188E-02
RMM:   6    -0.115712315748E+04   -0.19125E-04   -0.29197E-05  3432   0.792E-03    0.180E-02
RMM:   7    -0.115712316756E+04   -0.10072E-04   -0.15357E-05  3197   0.535E-03    0.153E-02
RMM:   8    -0.115712320692E+04   -0.39359E-04   -0.29983E-05  3258   0.712E-03
  11 F= -.11571232E+04 E0= -.11571232E+04  d E =-.118651E-02  mag=    14.0000
       N       E                     dE             d eps       ncg     rms          rms(c)
DAV:   1    -0.115712268404E+04    0.48351E-03   -0.43133E-01  6272   0.721E-01    0.202E-01
RMM:   2    -0.115712392298E+04   -0.12389E-02   -0.10035E-02  6456   0.125E-01    0.114E-01
RMM:   3    -0.115712398877E+04   -0.65788E-04   -0.48954E-04  4510   0.392E-02    0.616E-02
RMM:   4    -0.115712399340E+04   -0.46354E-05   -0.11628E-04  3590   0.148E-02    0.333E-02
RMM:   5    -0.115712402273E+04   -0.29332E-04   -0.65442E-05  3503   0.105E-02    0.176E-02
RMM:   6    -0.115712403761E+04   -0.14871E-04   -0.23253E-05  3342   0.693E-03    0.162E-02
RMM:   7    -0.115712404674E+04   -0.91374E-05   -0.12053E-05  3050   0.495E-03    0.135E-02
RMM:   8    -0.115712407981E+04   -0.33066E-04   -0.26506E-05  3110   0.643E-03
  12 F= -.11571241E+04 E0= -.11571241E+04  d E =-.872893E-03  mag=    14.0000
