       N       E                     dE             d eps       ncg     rms          rms(c)
DAV:   1    -0.116154738183E+04   -0.11615E+04   -0.50552E-06  7568   0.360E-03    0.430E-03
RMM:   2    -0.116154738201E+04   -0.17180E-06   -0.13697E-06  3607   0.230E-03    0.482E-03
RMM:   3    -0.116154738205E+04   -0.48254E-07   -0.30906E-07  1723   0.183E-03    0.121E-03
RMM:   4    -0.116154738213E+04   -0.73182E-07   -0.15643E-07  1252   0.178E-03    0.982E-04
RMM:   5    -0.116154738218E+04   -0.50029E-07   -0.10223E-07  1069   0.175E-03    0.990E-04
RMM:   6    -0.116154738227E+04   -0.92725E-07   -0.15720E-07  1107   0.179E-03    0.806E-04
RMM:   7    -0.116154738235E+04   -0.76529E-07   -0.19615E-07  1139   0.179E-03    0.786E-04
RMM:   8    -0.116154738243E+04   -0.86089E-07   -0.22024E-07  1224   0.181E-03
   1 F= -.11615474E+04 E0= -.11615474E+04  d E =-.116155E+04  mag=     6.0000
       N       E                     dE             d eps       ncg     rms          rms(c)
DAV:   1    -0.116154752289E+04   -0.14054E-03   -0.79892E-02 12432   0.323E-01    0.754E-02
RMM:   2    -0.116154768900E+04   -0.16611E-03   -0.20790E-03 12371   0.597E-02    0.546E-02
RMM:   3    -0.116154768300E+04    0.60028E-05   -0.10608E-04  6942   0.198E-02    0.357E-02
RMM:   4    -0.116154767493E+04    0.80700E-05   -0.38814E-05  6772   0.838E-03    0.194E-02
RMM:   5    -0.116154767386E+04    0.10697E-05   -0.13499E-05  6345   0.501E-03    0.562E-03
RMM:   6    -0.116154767437E+04   -0.51726E-06   -0.44761E-06  5265   0.342E-03    0.426E-03
RMM:   7    -0.116154767462E+04   -0.25048E-06   -0.20983E-06  3703   0.247E-03    0.306E-03
RMM:   8    -0.116154767476E+04   -0.13690E-06   -0.92881E-07  2649   0.227E-03
   2 F= -.11615477E+04 E0= -.11615477E+04  d E =-.292327E-03  mag=     6.0000
       N       E                     dE             d eps       ncg     rms          rms(c)
DAV:   1    -0.116154784173E+04   -0.16710E-03   -0.30590E-02 12160   0.199E-01    0.616E-02
RMM:   2    -0.116154790090E+04   -0.59168E-04   -0.88582E-04 11849   0.383E-02    0.495E-02
RMM:   3    -0.116154789510E+04    0.57958E-05   -0.42836E-05  6638   0.136E-02    0.305E-02
RMM:   4    -0.116154788656E+04    0.85415E-05   -0.30854E-05  6548   0.670E-03    0.184E-02
RMM:   5    -0.116154788555E+04    0.10092E-05   -0.72283E-06  5704   0.402E-03    0.644E-03
RMM:   6    -0.116154788565E+04   -0.10188E-06   -0.24796E-06  3965   0.255E-03    0.518E-03
RMM:   7    -0.116154788574E+04   -0.92696E-07   -0.95871E-07  2601   0.232E-03    0.288E-03
RMM:   8    -0.116154788580E+04   -0.54031E-07   -0.37010E-07  2025   0.197E-03
   3 F= -.11615479E+04 E0= -.11615479E+04  d E =-.211037E-03  mag=     6.0000
       N       E                     dE             d eps       ncg     rms          rms(c)
DAV:   1    -0.116154803620E+04   -0.15045E-03   -0.56637E-02 12240   0.273E-01    0.620E-02
RMM:   2    -0.116154816202E+04   -0.12582E-03   -0.14537E-03 12236   0.496E-02    0.445E-02
RMM:   3    -0.116154816081E+04    0.12060E-05   -0.69972E-05  6769   0.173E-02    0.276E-02
RMM:   4    -0.116154815605E+04    0.47615E-05   -0.27491E-05  6527   0.697E-03    0.157E-02
RMM:   5    -0.116154815544E+04    0.61370E-06   -0.86853E-06  5752   0.418E-03    0.522E-03
RMM:   6    -0.116154815580E+04   -0.36499E-06   -0.32230E-06  4341   0.289E-03    0.340E-03
RMM:   7    -0.116154815597E+04   -0.17145E-06   -0.14017E-06  2853   0.233E-03    0.218E-03
RMM:   8    -0.116154815607E+04   -0.95621E-07   -0.58073E-07  2220   0.209E-03
   4 F= -.11615482E+04 E0= -.11615482E+04  d E =-.270271E-03  mag=     6.0000
       N       E                     dE             d eps       ncg     rms          rms(c)
DAV:   1    -0.116154823305E+04   -0.77080E-04   -0.10967E-01 12400   0.379E-01    0.837E-02
RMM:   2    -0.116154849343E+04   -0.26038E-03   -0.27287E-03 12766   0.669E-02    0.530E-02
RMM:   3    -0.116154849375E+04   -0.31253E-06   -0.11961E-04  7173   0.208E-02    0.319E-02
RMM:   4    -0.116154848742E+04    0.63237E-05   -0.36739E-05  6854   0.821E-03    0.180E-02
RMM:   5    -0.116154848684E+04    0.58363E-06   -0.13174E-05  6533   0.509E-03    0.779E-03
RMM:   6    -0.116154848744E+04   -0.60440E-06   -0.50370E-06  5397   0.355E-03    0.405E-03
RMM:   7    -0.116154848774E+04   -0.29967E-06   -0.25249E-06  4083   0.271E-03    0.297E-03
RMM:   8    -0.116154848791E+04   -0.16254E-06   -0.12530E-06  3194   0.237E-03
   5 F= -.11615485E+04 E0= -.11615485E+04  d E =-.331837E-03  mag=     6.0000
       N       E                     dE             d eps       ncg     rms          rms(c)
DAV:   1    -0.116154851100E+04   -0.23258E-04   -0.15119E-01 12456   0.444E-01    0.923E-02
RMM:   2    -0.116154887388E+04   -0.36288E-03   -0.36956E-03 12914   0.768E-02    0.569E-02
RMM:   3    -0.116154887418E+04   -0.29677E-06   -0.15353E-04  7403   0.232E-02    0.342E-02
RMM:   4    -0.116154886681E+04    0.73659E-05   -0.43271E-05  6905   0.906E-03    0.176E-02
RMM:   5    -0.116154886701E+04   -0.19833E-06   -0.16185E-05  6676   0.569E-03    0.696E-03
RMM:   6    -0.116154886778E+04   -0.77439E-06   -0.62259E-06  5672   0.397E-03    0.357E-03
RMM:   7    -0.116154886817E+04   -0.38893E-06   -0.32986E-06  4493   0.293E-03    0.274E-03
RMM:   8    -0.116154886838E+04   -0.20591E-06   -0.16835E-06  3603   0.257E-03
   6 F= -.11615489E+04 E0= -.11615489E+04  d E =-.380472E-03  mag=     6.0000
       N       E                     dE             d eps       ncg     rms          rms(c)
DAV:   1    -0.116154882392E+04    0.44252E-04   -0.15173E-01 12464   0.444E-01    0.894E-02
RMM:   2    -0.116154918236E+04   -0.35844E-03   -0.37140E-03 12882   0.768E-02    0.545E-02
RMM:   3    -0.116154918074E+04    0.16234E-05   -0.15594E-04  7427   0.235E-02    0.333E-02
RMM:   4    -0.116154917360E+04    0.71349E-05   -0.43660E-05  6956   0.905E-03    0.180E-02
RMM:   5    -0.116154917362E+04   -0.23385E-07   -0.16157E-05  6669   0.573E-03    0.865E-03
RMM:   6    -0.116154917441E+04   -0.78938E-06   -0.65809E-06  5668   0.403E-03    0.443E-03
RMM:   7    -0.116154917483E+04   -0.41146E-06   -0.35036E-06  4623   0.301E-03    0.359E-03
RMM:   8    -0.116154917504E+04   -0.21751E-06   -0.18180E-06  3716   0.261E-03
   7 F= -.11615492E+04 E0= -.11615492E+04  d E =-.306666E-03  mag=     6.0000
       N       E                     dE             d eps       ncg     rms          rms(c)
DAV:   1    -0.116154920583E+04   -0.31000E-04   -0.10029E-01 12272   0.358E-01    0.720E-02
RMM:   2    -0.116154944058E+04   -0.23475E-03   -0.24103E-03 12645   0.617E-02    0.446E-02
RMM:   3    -0.116154944021E+04    0.36453E-06   -0.99472E-05  7074   0.197E-02    0.271E-02
RMM:   4    -0.116154943590E+04    0.43068E-05   -0.31372E-05  6797   0.746E-03    0.161E-02
RMM:   5    -0.116154943571E+04    0.19673E-06   -0.10549E-05  6253   0.466E-03    0.811E-03
RMM:   6    -0.116154943622E+04   -0.51282E-06   -0.45265E-06  4992   0.337E-03    0.401E-03
RMM:   7    -0.116154943647E+04   -0.25045E-06   -0.21971E-06  3960   0.265E-03    0.276E-03
RMM:   8    -0.116154943659E+04   -0.11783E-06   -0.10911E-06  3029   0.226E-03
   8 F= -.11615494E+04 E0= -.11615494E+04  d E =-.261546E-03  mag=     6.0000
       N       E                     dE             d eps       ncg     rms          rms(c)
DAV:   1    -0.116154944564E+04   -0.91684E-05   -0.82272E-02 12144   0.325E-01    0.607E-02
RMM:   2    -0.116154963502E+04   -0.18938E-03   -0.19874E-03 12541   0.562E-02    0.365E-02
RMM:   3    -0.116154963388E+04    0.11426E-05   -0.82661E-05  6950   0.185E-02    0.229E-02
RMM:   4    -0.116154963113E+04    0.27513E-05   -0.27020E-05  6719   0.682E-03    0.124E-02
RMM:   5    -0.116154963138E+04   -0.25526E-06   -0.83658E-06  5954   0.420E-03    0.587E-03
RMM:   6    -0.116154963181E+04   -0.42685E-06   -0.36545E-06  4579   0.302E-03    0.298E-03
RMM:   7    -0.116154963201E+04   -0.20217E-06   -0.16983E-06  3466   0.245E-03    0.207E-03
RMM:   8    -0.116154963211E+04   -0.10016E-06   -0.82227E-07  2663   0.213E-03
   9 F= -.11615496E+04 E0= -.11615496E+04  d E =-.195523E-03  mag=     6.0000
