       N       E                     dE             d eps       ncg     rms          rms(c)
DAV:   1    -0.116301587156E+04   -0.11630E+04   -0.33804E-05  8344   0.137E-02    0.165E-02
RMM:   2    -0.116301591641E+04   -0.44851E-04   -0.38459E-05  6443   0.865E-03    0.223E-02
RMM:   3    -0.116301592444E+04   -0.80271E-05   -0.11949E-05  5037   0.383E-03    0.196E-02
RMM:   4    -0.116301591455E+04    0.98860E-05   -0.33189E-06  4213   0.323E-03    0.196E-02
RMM:   5    -0.116301590405E+04    0.10505E-04   -0.19471E-06  3530   0.276E-03    0.195E-02
RMM:   6    -0.116301589672E+04    0.73297E-05   -0.10788E-06  2583   0.204E-03    0.196E-02
RMM:   7    -0.116301598440E+04   -0.87679E-04   -0.47373E-05  5451   0.839E-03    0.193E-02
RMM:   8    -0.116301604479E+04   -0.60393E-04   -0.45688E-05  4981   0.636E-03
   1 F= -.11630160E+04 E0= -.11630134E+04  d E =-.116302E+04  mag=     4.0564
       N       E                     dE             d eps       ncg     rms          rms(c)
DAV:   1    -0.116301540962E+04    0.57478E-03   -0.14360E+00 12704   0.133E+00    0.495E-01
RMM:   2    -0.116302012831E+04   -0.47187E-02   -0.39331E-02 12340   0.254E-01    0.374E-01
RMM:   3    -0.116302036747E+04   -0.23917E-03   -0.23302E-03 12617   0.875E-02    0.209E-01
RMM:   4    -0.116302031472E+04    0.52750E-04   -0.85406E-04 11088   0.344E-02    0.112E-01
RMM:   5    -0.116302035469E+04   -0.39970E-04   -0.27542E-04  8839   0.231E-02    0.433E-02
RMM:   6    -0.116302039441E+04   -0.39721E-04   -0.58989E-05  7215   0.114E-02    0.333E-02
RMM:   7    -0.116302043852E+04   -0.44108E-04   -0.35987E-05  7036   0.773E-03    0.319E-02
RMM:   8    -0.116302051603E+04   -0.77508E-04   -0.44954E-05  6977   0.832E-03
   2 F= -.11630205E+04 E0= -.11630179E+04  d E =-.447124E-02  mag=     4.0538
       N       E                     dE             d eps       ncg     rms          rms(c)
DAV:   1    -0.116302212904E+04   -0.16905E-02   -0.29895E-01 12784   0.615E-01    0.204E-01
RMM:   2    -0.116302287602E+04   -0.74698E-03   -0.85574E-03 12223   0.119E-01    0.173E-01
RMM:   3    -0.116302288297E+04   -0.69499E-05   -0.47487E-04 10350   0.404E-02    0.106E-01
RMM:   4    -0.116302290314E+04   -0.20169E-04   -0.28357E-04  8661   0.197E-02    0.583E-02
RMM:   5    -0.116302295400E+04   -0.50854E-04   -0.95383E-05  7350   0.132E-02    0.318E-02
RMM:   6    -0.116302298413E+04   -0.30130E-04   -0.32327E-05  6935   0.715E-03    0.266E-02
RMM:   7    -0.116302302653E+04   -0.42401E-04   -0.22485E-05  6321   0.572E-03    0.243E-02
RMM:   8    -0.116302310151E+04   -0.74986E-04   -0.44877E-05  6624   0.702E-03
   3 F= -.11630231E+04 E0= -.11630204E+04  d E =-.258548E-02  mag=     4.0553
       N       E                     dE             d eps       ncg     rms          rms(c)
DAV:   1    -0.116302315021E+04   -0.12369E-03   -0.87755E-01 12640   0.104E+00    0.332E-01
RMM:   2    -0.116302595437E+04   -0.28042E-02   -0.21254E-02 12851   0.182E-01    0.200E-01
RMM:   3    -0.116302613739E+04   -0.18302E-03   -0.10974E-03 11829   0.592E-02    0.108E-01
RMM:   4    -0.116302616359E+04   -0.26205E-04   -0.26905E-04  8174   0.224E-02    0.562E-02
RMM:   5    -0.116302624632E+04   -0.82725E-04   -0.14514E-04  7399   0.149E-02    0.306E-02
RMM:   6    -0.116302628261E+04   -0.36298E-04   -0.42720E-05  7003   0.975E-03    0.264E-02
RMM:   7    -0.116302633083E+04   -0.48217E-04   -0.33388E-05  6865   0.699E-03    0.253E-02
RMM:   8    -0.116302642385E+04   -0.93018E-04   -0.61532E-05  6862   0.882E-03
   4 F= -.11630264E+04 E0= -.11630238E+04  d E =-.332234E-02  mag=     4.0556
       N       E                     dE             d eps       ncg     rms          rms(c)
DAV:   1    -0.116302074202E+04    0.55888E-02   -0.30086E+00 12576   0.193E+00    0.583E-01
RMM:   2    -0.116302993460E+04   -0.91926E-02   -0.71832E-02 12852   0.336E-01    0.340E-01
RMM:   3    -0.116303049737E+04   -0.56277E-03   -0.38250E-03 13274   0.110E-01    0.184E-01
RMM:   4    -0.116303048843E+04    0.89368E-05   -0.92615E-04 12332   0.368E-02    0.915E-02
RMM:   5    -0.116303061522E+04   -0.12678E-03   -0.35138E-04  8866   0.238E-02    0.436E-02
RMM:   6    -0.116303067687E+04   -0.61650E-04   -0.83706E-05  7234   0.136E-02    0.338E-02
RMM:   7    -0.116303077329E+04   -0.96426E-04   -0.79632E-05  7138   0.108E-02    0.320E-02
RMM:   8    -0.116303092283E+04   -0.14954E-03   -0.11908E-04  7147   0.127E-02    0.281E-02
RMM:   9    -0.116303103195E+04   -0.10912E-03   -0.99271E-05  7058   0.918E-03    0.274E-02
RMM:  10    -0.116303115291E+04   -0.12096E-03   -0.98644E-05  6999   0.985E-03    0.260E-02
RMM:  11    -0.116303147304E+04   -0.32013E-03   -0.77925E-04  8337   0.287E-02    0.237E-02
RMM:  12    -0.116303167233E+04   -0.19929E-03   -0.49718E-04  7751   0.204E-02    0.211E-02
RMM:  13    -0.116303184026E+04   -0.16793E-03   -0.41010E-04  7779   0.184E-02    0.194E-02
RMM:  14    -0.116303199340E+04   -0.15315E-03   -0.42890E-04  7534   0.184E-02    0.182E-02
RMM:  15    -0.116303214294E+04   -0.14954E-03   -0.50531E-04  7802   0.200E-02    0.171E-02
RMM:  16    -0.116303228297E+04   -0.14003E-03   -0.54538E-04  7619   0.208E-02    0.157E-02
RMM:  17    -0.116303244706E+04   -0.16409E-03   -0.12514E-03  8714   0.339E-02    0.151E-02
RMM:  18    -0.116303257174E+04   -0.12468E-03   -0.55212E-04  7718   0.196E-02    0.129E-02
RMM:  19    -0.116303264827E+04   -0.76537E-04   -0.41950E-04  7658   0.189E-02
   5 F= -.11630326E+04 E0= -.11630299E+04  d E =-.622442E-02  mag=     4.0567
       N       E                     dE             d eps       ncg     rms          rms(c)
DAV:   1    -0.116303217718E+04    0.39455E-03   -0.78861E-01 12640   0.986E-01    0.291E-01
RMM:   2    -0.116303455896E+04   -0.23818E-02   -0.18982E-02 12684   0.174E-01    0.169E-01
RMM:   3    -0.116303470747E+04   -0.14852E-03   -0.10597E-03 11346   0.588E-02    0.928E-02
RMM:   4    -0.116303468637E+04    0.21103E-04   -0.20049E-04  7730   0.193E-02    0.476E-02
RMM:   5    -0.116303470616E+04   -0.19787E-04   -0.90643E-05  7187   0.130E-02    0.193E-02
RMM:   6    -0.116303471624E+04   -0.10086E-04   -0.27182E-05  6984   0.839E-03    0.156E-02
RMM:   7    -0.116303472603E+04   -0.97861E-05   -0.16974E-05  6742   0.534E-03    0.139E-02
RMM:   8    -0.116303474702E+04   -0.20989E-04   -0.20372E-05  6679   0.600E-03
   6 F= -.11630347E+04 E0= -.11630320E+04  d E =-.209874E-02  mag=     4.0572
       N       E                     dE             d eps       ncg     rms          rms(c)
DAV:   1    -0.116303484556E+04   -0.11953E-03   -0.43925E-01 12768   0.752E-01    0.173E-01
RMM:   2    -0.116303595809E+04   -0.11125E-02   -0.10769E-02 12798   0.130E-01    0.109E-01
RMM:   3    -0.116303597497E+04   -0.16881E-04   -0.50691E-04  9475   0.417E-02    0.669E-02
RMM:   4    -0.116303596816E+04    0.68122E-05   -0.12955E-04  7268   0.152E-02    0.364E-02
RMM:   5    -0.116303598936E+04   -0.21197E-04   -0.59310E-05  7044   0.104E-02    0.193E-02
RMM:   6    -0.116303599997E+04   -0.10613E-04   -0.21047E-05  6857   0.703E-03    0.157E-02
RMM:   7    -0.116303601201E+04   -0.12039E-04   -0.14366E-05  6562   0.511E-03    0.145E-02
RMM:   8    -0.116303603304E+04   -0.21033E-04   -0.16848E-05  6342   0.537E-03
   7 F= -.11630360E+04 E0= -.11630332E+04  d E =-.128603E-02  mag=     4.0577
       N       E                     dE             d eps       ncg     rms          rms(c)
DAV:   1    -0.116303607257E+04   -0.60558E-04   -0.32823E-01 12712   0.648E-01    0.143E-01
RMM:   2    -0.116303689081E+04   -0.81824E-03   -0.80288E-03 12557   0.112E-01    0.913E-02
RMM:   3    -0.116303690618E+04   -0.15369E-04   -0.38641E-04  8891   0.377E-02    0.580E-02
RMM:   4    -0.116303690962E+04   -0.34399E-05   -0.10475E-04  7184   0.135E-02    0.335E-02
RMM:   5    -0.116303693280E+04   -0.23185E-04   -0.49047E-05  6989   0.922E-03    0.181E-02
RMM:   6    -0.116303694468E+04   -0.11881E-04   -0.18537E-05  6767   0.638E-03    0.156E-02
RMM:   7    -0.116303695705E+04   -0.12371E-04   -0.12420E-05  6237   0.470E-03    0.145E-02
RMM:   8    -0.116303697916E+04   -0.22107E-04   -0.15938E-05  6028   0.503E-03
   8 F= -.11630370E+04 E0= -.11630342E+04  d E =-.946117E-03  mag=     4.0578
       N       E                     dE             d eps       ncg     rms          rms(c)
DAV:   1    -0.116303725952E+04   -0.30247E-03   -0.96854E-02 12664   0.358E-01    0.720E-02
RMM:   2    -0.116303749153E+04   -0.23201E-03   -0.24018E-03 12473   0.612E-02    0.470E-02
RMM:   3    -0.116303749492E+04   -0.33863E-05   -0.10144E-04  7106   0.214E-02    0.317E-02
RMM:   4    -0.116303750754E+04   -0.12619E-04   -0.46721E-05  6959   0.863E-03    0.221E-02
RMM:   5    -0.116303752131E+04   -0.13769E-04   -0.17604E-05  6559   0.527E-03    0.161E-02
RMM:   6    -0.116303753163E+04   -0.10320E-04   -0.90620E-06  5918   0.429E-03    0.135E-02
RMM:   7    -0.116303754198E+04   -0.10356E-04   -0.65913E-06  4757   0.336E-03    0.131E-02
RMM:   8    -0.116303755389E+04   -0.11910E-04   -0.64738E-06  4712   0.314E-03
   9 F= -.11630376E+04 E0= -.11630347E+04  d E =-.574732E-03  mag=     4.0581
