       N       E                     dE             d eps       ncg     rms          rms(c)
DAV:   1    -0.115955653117E+04   -0.11596E+04   -0.28234E-05  7944   0.132E-02    0.145E-02
RMM:   2    -0.115955656818E+04   -0.37015E-04   -0.33253E-05  6408   0.104E-02    0.189E-02
RMM:   3    -0.115955657416E+04   -0.59763E-05   -0.10745E-05  5435   0.405E-03    0.180E-02
RMM:   4    -0.115955656188E+04    0.12278E-04   -0.40992E-06  5421   0.389E-03    0.170E-02
RMM:   5    -0.115955653076E+04    0.31120E-04   -0.90791E-06  5830   0.575E-03    0.177E-02
RMM:   6    -0.115955653409E+04   -0.33308E-05   -0.16187E-06  3602   0.225E-03    0.173E-02
RMM:   7    -0.115955653226E+04    0.18350E-05   -0.90198E-07  2895   0.228E-03    0.176E-02
RMM:   8    -0.115955653594E+04   -0.36820E-05   -0.34415E-07  2090   0.192E-03
   1 F= -.11595565E+04 E0= -.11595565E+04  d E =-.115956E+04  mag=     2.0000
       N       E                     dE             d eps       ncg     rms          rms(c)
DAV:   1    -0.115955720222E+04   -0.66997E-03   -0.21652E-01 12544   0.540E-01    0.101E-01
RMM:   2    -0.115955768400E+04   -0.48177E-03   -0.51967E-03 12350   0.928E-02    0.663E-02
RMM:   3    -0.115955770851E+04   -0.24512E-04   -0.30559E-04  8365   0.442E-02    0.465E-02
RMM:   4    -0.115955773982E+04   -0.31311E-04   -0.99844E-05  7114   0.157E-02    0.372E-02
RMM:   5    -0.115955778167E+04   -0.41852E-04   -0.52314E-05  6873   0.104E-02    0.227E-02
RMM:   6    -0.115955781985E+04   -0.38184E-04   -0.30438E-05  6596   0.878E-03    0.217E-02
RMM:   7    -0.115955783942E+04   -0.19563E-04   -0.15471E-05  6378   0.566E-03    0.211E-02
RMM:   8    -0.115955785074E+04   -0.11318E-04   -0.81114E-06  6223   0.488E-03
   2 F= -.11595579E+04 E0= -.11595579E+04  d E =-.131480E-02  mag=     2.0000
       N       E                     dE             d eps       ncg     rms          rms(c)
DAV:   1    -0.115955832304E+04   -0.48362E-03   -0.30963E-02 12208   0.205E-01    0.477E-02
RMM:   2    -0.115955841688E+04   -0.93833E-04   -0.84530E-04 11858   0.392E-02    0.383E-02
RMM:   3    -0.115955843888E+04   -0.22006E-04   -0.52412E-05  6588   0.178E-02    0.290E-02
RMM:   4    -0.115955848312E+04   -0.44243E-04   -0.44477E-05  6484   0.107E-02    0.244E-02
RMM:   5    -0.115955853075E+04   -0.47624E-04   -0.36269E-05  6155   0.777E-03    0.210E-02
RMM:   6    -0.115955856200E+04   -0.31249E-04   -0.18737E-05  5890   0.545E-03    0.207E-02
RMM:   7    -0.115955855980E+04    0.21922E-05   -0.45479E-06  4834   0.370E-03    0.204E-02
RMM:   8    -0.115955856261E+04   -0.28077E-05   -0.24397E-06  3794   0.270E-03
   3 F= -.11595586E+04 E0= -.11595586E+04  d E =-.711876E-03  mag=     2.0000
