       N       E                     dE             d eps       ncg     rms          rms(c)
DAV:   1    -0.116280554580E+04   -0.11628E+04   -0.11943E-05  7656   0.730E-03    0.717E-03
RMM:   2    -0.116280555127E+04   -0.54744E-05   -0.75557E-06  5560   0.414E-03    0.924E-03
RMM:   3    -0.116280555290E+04   -0.16299E-05   -0.27580E-06  4187   0.260E-03    0.654E-03
RMM:   4    -0.116280555305E+04   -0.15195E-06   -0.11905E-06  2923   0.248E-03    0.667E-03
RMM:   5    -0.116280555100E+04    0.20542E-05   -0.83805E-07  2623   0.221E-03    0.787E-03
RMM:   6    -0.116280555136E+04   -0.36180E-06   -0.29793E-07  1866   0.200E-03    0.772E-03
RMM:   7    -0.116280555378E+04   -0.24155E-05   -0.40655E-07  1880   0.203E-03    0.648E-03
RMM:   8    -0.116280556409E+04   -0.10313E-04   -0.73400E-06  4333   0.385E-03
   1 F= -.11628056E+04 E0= -.11628056E+04  d E =-.116281E+04  mag=     6.0000
       N       E                     dE             d eps       ncg     rms          rms(c)
DAV:   1    -0.116280569372E+04   -0.13995E-03   -0.14653E-01 12480   0.442E-01    0.126E-01
RMM:   2    -0.116280588971E+04   -0.19599E-03   -0.46581E-03 12234   0.872E-02    0.119E-01
RMM:   3    -0.116280584025E+04    0.49462E-04   -0.16716E-04  8121   0.253E-02    0.787E-02
RMM:   4    -0.116280579254E+04    0.47705E-04   -0.14613E-04  7447   0.148E-02    0.572E-02
RMM:   5    -0.116280578823E+04    0.43120E-05   -0.43688E-05  7053   0.957E-03    0.218E-02
RMM:   6    -0.116280579021E+04   -0.19827E-05   -0.17010E-05  6283   0.586E-03    0.170E-02
RMM:   7    -0.116280579296E+04   -0.27507E-05   -0.82292E-06  5821   0.425E-03    0.124E-02
RMM:   8    -0.116280579710E+04   -0.41397E-05   -0.56369E-06  5453   0.361E-03
   2 F= -.11628058E+04 E0= -.11628058E+04  d E =-.233015E-03  mag=     6.0000
       N       E                     dE             d eps       ncg     rms          rms(c)
DAV:   1    -0.116280621970E+04   -0.42674E-03   -0.34407E-02 12304   0.212E-01    0.653E-02
RMM:   2    -0.116280623418E+04   -0.14474E-04   -0.12354E-03 11937   0.447E-02    0.672E-02
RMM:   3    -0.116280621616E+04    0.18015E-04   -0.45451E-05  6788   0.127E-02    0.450E-02
RMM:   4    -0.116280620073E+04    0.15428E-04   -0.56692E-05  6977   0.874E-03    0.221E-02
RMM:   5    -0.116280619984E+04    0.89692E-06   -0.15133E-05  6308   0.527E-03    0.135E-02
RMM:   6    -0.116280620153E+04   -0.16895E-05   -0.49626E-06  4815   0.338E-03    0.105E-02
RMM:   7    -0.116280620350E+04   -0.19749E-05   -0.21954E-06  3498   0.243E-03    0.811E-03
RMM:   8    -0.116280620894E+04   -0.54422E-05   -0.47072E-06  3921   0.317E-03
   3 F= -.11628062E+04 E0= -.11628062E+04  d E =-.411839E-03  mag=     6.0000
