       N       E                     dE             d eps       ncg     rms          rms(c)
DAV:   1    -0.116514795067E+04   -0.11651E+04   -0.45453E-06  7864   0.443E-03    0.830E-03
RMM:   2    -0.116514795041E+04    0.26420E-06   -0.38928E-06  4769   0.259E-03    0.880E-03
RMM:   3    -0.116514794973E+04    0.68141E-06   -0.46337E-07  2621   0.188E-03    0.163E-03
RMM:   4    -0.116514794972E+04    0.45547E-08   -0.12156E-08  1176   0.178E-03    0.145E-03
RMM:   5    -0.116514794972E+04    0.42201E-08   -0.73489E-08   934   0.182E-03    0.586E-04
RMM:   6    -0.116514794972E+04   -0.18190E-08   -0.73994E-08   819   0.182E-03    0.153E-04
RMM:   7    -0.116514794972E+04    0.27649E-09   -0.65747E-09   584   0.180E-03    0.111E-04
RMM:   8    -0.116514794972E+04   -0.10623E-08   -0.86770E-09   516   0.180E-03
   1 F= -.11651479E+04 E0= -.11651426E+04  d E =-.116515E+04  mag=     2.1745
       N       E                     dE             d eps       ncg     rms          rms(c)
DAV:   1    -0.116514808516E+04   -0.13544E-03   -0.59645E-02 12224   0.282E-01    0.768E-02
RMM:   2    -0.116514816643E+04   -0.81275E-04   -0.19484E-03 12176   0.549E-02    0.739E-02
RMM:   3    -0.116514813495E+04    0.31485E-04   -0.62873E-05  7098   0.118E-02    0.492E-02
RMM:   4    -0.116514811297E+04    0.21977E-04   -0.73762E-05  7044   0.917E-03    0.247E-02
RMM:   5    -0.116514810611E+04    0.68656E-05   -0.15938E-05  6205   0.449E-03    0.103E-02
RMM:   6    -0.116514810593E+04    0.17491E-06   -0.36411E-06  4940   0.240E-03    0.768E-03
RMM:   7    -0.116514810586E+04    0.66604E-07   -0.75200E-07  3324   0.185E-03    0.456E-03
RMM:   8    -0.116514810589E+04   -0.24404E-07   -0.23250E-07  2870   0.179E-03
   2 F= -.11651481E+04 E0= -.11651428E+04  d E =-.156168E-03  mag=     2.1717
       N       E                     dE             d eps       ncg     rms          rms(c)
DAV:   1    -0.116514825303E+04   -0.14716E-03   -0.12452E-02 12272   0.128E-01    0.368E-02
RMM:   2    -0.116514826225E+04   -0.92295E-05   -0.42959E-04 10886   0.255E-02    0.363E-02
RMM:   3    -0.116514825418E+04    0.80738E-05   -0.18028E-05  6274   0.606E-03    0.240E-02
RMM:   4    -0.116514824789E+04    0.62894E-05   -0.20943E-05  5938   0.488E-03    0.119E-02
RMM:   5    -0.116514824604E+04    0.18557E-05   -0.39863E-06  4485   0.248E-03    0.564E-03
RMM:   6    -0.116514824591E+04    0.12379E-06   -0.30406E-08  1955   0.163E-03    0.358E-03
RMM:   7    -0.116514824589E+04    0.26092E-07   -0.62966E-08  1222   0.169E-03    0.180E-03
RMM:   8    -0.116514824589E+04   -0.11642E-08   -0.51166E-08  1104   0.174E-03
   3 F= -.11651482E+04 E0= -.11651429E+04  d E =-.139999E-03  mag=     2.1725
