       N       E                     dE             d eps       ncg     rms          rms(c)
DAV:   1     0.121038788226E+05    0.12104E+05   -0.42642E+05 12352   0.132E+03
DAV:   2     0.711432338001E+03   -0.11392E+05   -0.10175E+05 12320   0.380E+02
DAV:   3    -0.134885418574E+04   -0.20603E+04   -0.19832E+04 13240   0.168E+02
DAV:   4    -0.149076152358E+04   -0.14191E+03   -0.13948E+03 16232   0.468E+01
DAV:   5    -0.150024492379E+04   -0.94834E+01   -0.94345E+01 22152   0.112E+01    0.182E+02
RMM:   6    -0.116128296672E+04    0.33896E+03   -0.16452E+03 12567   0.363E+01    0.132E+02
RMM:   7    -0.114405712721E+04    0.17226E+02   -0.62062E+01 12813   0.125E+01    0.774E+01
RMM:   8    -0.114706497555E+04   -0.30078E+01   -0.25252E+01 14008   0.577E+00    0.370E+01
RMM:   9    -0.115153185544E+04   -0.44669E+01   -0.76829E+00 13411   0.333E+00    0.140E+01
RMM:  10    -0.115315603582E+04   -0.16242E+01   -0.18268E+00 14618   0.149E+00    0.673E+00
RMM:  11    -0.115439034098E+04   -0.12343E+01   -0.11915E+00 15216   0.924E-01    0.445E+00
RMM:  12    -0.115507620239E+04   -0.68586E+00   -0.46502E-01 14988   0.694E-01    0.280E+00
RMM:  13    -0.115554434006E+04   -0.46814E+00   -0.52081E-01 13794   0.637E-01    0.123E+00
RMM:  14    -0.115559375674E+04   -0.49417E-01   -0.11450E-01 15333   0.345E-01    0.720E-01
RMM:  15    -0.115560508891E+04   -0.11332E-01   -0.40496E-02 16131   0.170E-01    0.527E-01
RMM:  16    -0.115560726422E+04   -0.21753E-02   -0.99470E-03 16926   0.838E-02    0.284E-01
RMM:  17    -0.115560838718E+04   -0.11230E-02   -0.62526E-03 15258   0.611E-02    0.145E-01
RMM:  18    -0.115560852815E+04   -0.14098E-03   -0.16559E-03 11216   0.329E-02    0.811E-02
RMM:  19    -0.115560868370E+04   -0.15554E-03   -0.11727E-03 10577   0.211E-02    0.484E-02
RMM:  20    -0.115560876170E+04   -0.78002E-04   -0.62750E-04 10175   0.188E-02
   1 F= -.11556088E+04 E0= -.11556088E+04  d E =-.115561E+04  mag=    13.9995
       N       E                     dE             d eps       ncg     rms          rms(c)
DAV:   1    -0.112458814161E+04    0.31021E+02   -0.10411E+03 13760   0.278E+01    0.248E+01
RMM:   2    -0.115396896135E+04   -0.29381E+02   -0.76794E+01 13081   0.829E+00    0.247E+01
RMM:   3    -0.115546202531E+04   -0.14931E+01   -0.39688E+00 12854   0.264E+00    0.117E+01
RMM:   4    -0.115544134756E+04    0.20678E-01   -0.10727E+00 14283   0.956E-01    0.108E+01
RMM:   5    -0.115540501401E+04    0.36334E-01   -0.14992E-01 15298   0.299E-01    0.673E+00
RMM:   6    -0.115536893715E+04    0.36077E-01   -0.23423E-01 12821   0.468E-01    0.492E+00
RMM:   7    -0.115537211636E+04   -0.31792E-02   -0.48075E-02 14555   0.204E-01    0.526E-01
RMM:   8    -0.115537208465E+04    0.31707E-04   -0.92246E-03 15700   0.741E-02    0.580E-01
RMM:   9    -0.115537220097E+04   -0.11632E-03   -0.30882E-03 12835   0.451E-02    0.128E-01
RMM:  10    -0.115537239586E+04   -0.19489E-03   -0.12119E-03 11675   0.278E-02    0.815E-02
RMM:  11    -0.115537249392E+04   -0.98064E-04   -0.48749E-04  8800   0.159E-02
   2 F= -.11553725E+04 E0= -.11553725E+04  d E =0.236268E+00  mag=    14.0000
       N       E                     dE             d eps       ncg     rms          rms(c)
DAV:   1    -0.115189627406E+04    0.34761E+01   -0.18049E+02 13792   0.110E+01    0.120E+01
RMM:   2    -0.115629232407E+04   -0.43961E+01   -0.97508E+00 12884   0.311E+00    0.153E+01
RMM:   3    -0.115638371530E+04   -0.91391E-01   -0.76329E-01 12487   0.123E+00    0.481E+00
RMM:   4    -0.115635278881E+04    0.30926E-01   -0.28733E-01 13730   0.498E-01    0.344E+00
RMM:   5    -0.115633214106E+04    0.20648E-01   -0.65292E-02 13509   0.229E-01    0.152E+00
RMM:   6    -0.115633109272E+04    0.10483E-02   -0.20822E-02 13385   0.126E-01    0.639E-01
RMM:   7    -0.115633121920E+04   -0.12648E-03   -0.40387E-03 14691   0.529E-02    0.354E-01
RMM:   8    -0.115633129985E+04   -0.80642E-04   -0.74004E-04 11616   0.263E-02
   3 F= -.11563313E+04 E0= -.11563313E+04  d E =-.958806E+00  mag=    14.0000
       N       E                     dE             d eps       ncg     rms          rms(c)
DAV:   1    -0.115635497734E+04   -0.23758E-01   -0.25033E+01 13576   0.465E+00    0.341E+00
RMM:   2    -0.115648881034E+04   -0.13383E+00   -0.67445E-01 12381   0.948E-01    0.228E+00
RMM:   3    -0.115650434810E+04   -0.15538E-01   -0.39537E-02 12843   0.299E-01    0.118E+00
RMM:   4    -0.115650124419E+04    0.31039E-02   -0.16233E-02 12991   0.125E-01    0.507E-01
RMM:   5    -0.115650073498E+04    0.50921E-03   -0.38099E-03 11949   0.651E-02    0.276E-01
RMM:   6    -0.115650073911E+04   -0.41352E-05   -0.53107E-04 10336   0.216E-02    0.117E-01
RMM:   7    -0.115650073917E+04   -0.61016E-07   -0.16805E-04  8249   0.138E-02    0.774E-02
RMM:   8    -0.115650075323E+04   -0.14057E-04   -0.91441E-05  7862   0.120E-02
   4 F= -.11565008E+04 E0= -.11565008E+04  d E =-.169453E+00  mag=    14.0000
       N       E                     dE             d eps       ncg     rms          rms(c)
DAV:   1    -0.115646200821E+04    0.38731E-01   -0.20728E+01 12976   0.445E+00    0.284E+00
RMM:   2    -0.115656232194E+04   -0.10031E+00   -0.53186E-01 12563   0.879E-01    0.189E+00
RMM:   3    -0.115657349249E+04   -0.11171E-01   -0.33512E-02 13306   0.263E-01    0.107E+00
RMM:   4    -0.115657106797E+04    0.24245E-02   -0.11156E-02 13427   0.104E-01    0.392E-01
RMM:   5    -0.115657092510E+04    0.14286E-03   -0.25457E-03 12256   0.516E-02    0.148E-01
RMM:   6    -0.115657092822E+04   -0.31176E-05   -0.39438E-04  9593   0.208E-02    0.142E-01
RMM:   7    -0.115657094281E+04   -0.14584E-04   -0.11851E-04  7972   0.124E-02    0.691E-02
RMM:   8    -0.115657096690E+04   -0.24091E-04   -0.97129E-05  7743   0.119E-02
   5 F= -.11565710E+04 E0= -.11565710E+04  d E =-.702137E-01  mag=    14.0000
       N       E                     dE             d eps       ncg     rms          rms(c)
DAV:   1    -0.115657678609E+04   -0.58433E-02   -0.10094E+01 12832   0.354E+00    0.981E-01
RMM:   2    -0.115660256974E+04   -0.25784E-01   -0.24489E-01 12800   0.628E-01    0.658E-01
RMM:   3    -0.115660329445E+04   -0.72471E-03   -0.12924E-02 13330   0.191E-01    0.389E-01
RMM:   4    -0.115660254295E+04    0.75150E-03   -0.32926E-03 14757   0.611E-02    0.201E-01
RMM:   5    -0.115660241468E+04    0.12826E-03   -0.11833E-03 12593   0.332E-02    0.596E-02
RMM:   6    -0.115660242718E+04   -0.12493E-04   -0.16328E-04  8325   0.163E-02    0.489E-02
RMM:   7    -0.115660243635E+04   -0.91713E-05   -0.75962E-05  7460   0.105E-02    0.278E-02
RMM:   8    -0.115660245415E+04   -0.17805E-04   -0.63170E-05  7282   0.103E-02
   6 F= -.11566025E+04 E0= -.11566025E+04  d E =-.314873E-01  mag=    14.0000
       N       E                     dE             d eps       ncg     rms          rms(c)
DAV:   1    -0.115660622466E+04   -0.37883E-02   -0.99117E+00 12864   0.353E+00    0.844E-01
RMM:   2    -0.115662983988E+04   -0.23615E-01   -0.23983E-01 12910   0.622E-01    0.579E-01
RMM:   3    -0.115663019116E+04   -0.35128E-03   -0.12465E-02 13561   0.185E-01    0.372E-01
RMM:   4    -0.115662959702E+04    0.59414E-03   -0.27446E-03 14879   0.563E-02    0.203E-01
RMM:   5    -0.115662949304E+04    0.10398E-03   -0.11654E-03 12517   0.322E-02    0.522E-02
RMM:   6    -0.115662950593E+04   -0.12883E-04   -0.16126E-04  8140   0.160E-02    0.454E-02
RMM:   7    -0.115662951526E+04   -0.93290E-05   -0.73433E-05  7353   0.101E-02    0.259E-02
RMM:   8    -0.115662952748E+04   -0.12227E-04   -0.56487E-05  7232   0.982E-03
   7 F= -.11566295E+04 E0= -.11566295E+04  d E =-.270733E-01  mag=    14.0000
       N       E                     dE             d eps       ncg     rms          rms(c)
DAV:   1    -0.115662533421E+04    0.41811E-02   -0.11345E+01 12768   0.381E+00    0.822E-01
RMM:   2    -0.115665219821E+04   -0.26864E-01   -0.27178E-01 12978   0.655E-01    0.529E-01
RMM:   3    -0.115665242875E+04   -0.23055E-03   -0.13102E-02 13436   0.198E-01    0.331E-01
RMM:   4    -0.115665183207E+04    0.59669E-03   -0.32101E-03 15240   0.613E-02    0.169E-01
RMM:   5    -0.115665177080E+04    0.61270E-04   -0.10490E-03 12986   0.309E-02    0.505E-02
RMM:   6    -0.115665178597E+04   -0.15172E-04   -0.17001E-04  8189   0.156E-02    0.429E-02
RMM:   7    -0.115665179694E+04   -0.10971E-04   -0.84776E-05  7393   0.103E-02    0.239E-02
RMM:   8    -0.115665181266E+04   -0.15717E-04   -0.65114E-05  7259   0.101E-02
   8 F= -.11566518E+04 E0= -.11566518E+04  d E =-.222852E-01  mag=    14.0000
       N       E                     dE             d eps       ncg     rms          rms(c)
DAV:   1    -0.115665069820E+04    0.10987E-02   -0.71353E+00 12672   0.304E+00    0.605E-01
RMM:   2    -0.115666704558E+04   -0.16347E-01   -0.16978E-01 12868   0.514E-01    0.375E-01
RMM:   3    -0.115666706696E+04   -0.21379E-04   -0.82731E-03 13058   0.164E-01    0.236E-01
RMM:   4    -0.115666671037E+04    0.35659E-03   -0.21581E-03 14761   0.508E-02    0.118E-01
RMM:   5    -0.115666669145E+04    0.18922E-04   -0.62502E-04 11712   0.249E-02    0.356E-02
RMM:   6    -0.115666670115E+04   -0.97009E-05   -0.97039E-05  7532   0.137E-02    0.270E-02
RMM:   7    -0.115666671088E+04   -0.97289E-05   -0.62997E-05  7318   0.975E-03    0.172E-02
RMM:   8    -0.115666672372E+04   -0.12849E-04   -0.50098E-05  7154   0.919E-03
   9 F= -.11566667E+04 E0= -.11566667E+04  d E =-.149111E-01  mag=    14.0000
       N       E                     dE             d eps       ncg     rms          rms(c)
DAV:   1    -0.115666254543E+04    0.41654E-02   -0.79893E+00 12608   0.322E+00    0.619E-01
RMM:   2    -0.115668079956E+04   -0.18254E-01   -0.19020E-01 12864   0.544E-01    0.374E-01
RMM:   3    -0.115668077053E+04    0.29035E-04   -0.91620E-03 13100   0.174E-01    0.239E-01
RMM:   4    -0.115668038036E+04    0.39017E-03   -0.23908E-03 14996   0.540E-02    0.120E-01
RMM:   5    -0.115668036946E+04    0.10898E-04   -0.63866E-04 11855   0.250E-02    0.334E-02
RMM:   6    -0.115668037723E+04   -0.77707E-05   -0.81576E-05  7623   0.135E-02    0.197E-02
RMM:   7    -0.115668039075E+04   -0.13517E-04   -0.82844E-05  7480   0.104E-02    0.114E-02
RMM:   8    -0.115668039791E+04   -0.71616E-05   -0.42133E-05  7052   0.855E-03
  10 F= -.11566804E+04 E0= -.11566804E+04  d E =-.136742E-01  mag=    14.0000
       N       E                     dE             d eps       ncg     rms          rms(c)
DAV:   1    -0.115667484726E+04    0.55435E-02   -0.71434E+00 12632   0.305E+00    0.590E-01
RMM:   2    -0.115669128467E+04   -0.16437E-01   -0.16935E-01 12775   0.514E-01    0.349E-01
RMM:   3    -0.115669132713E+04   -0.42460E-04   -0.83527E-03 13029   0.168E-01    0.221E-01
RMM:   4    -0.115669099045E+04    0.33668E-03   -0.21272E-03 14892   0.511E-02    0.113E-01
RMM:   5    -0.115669097690E+04    0.13550E-04   -0.59700E-04 11540   0.242E-02    0.351E-02
RMM:   6    -0.115669098413E+04   -0.72276E-05   -0.77059E-05  7570   0.136E-02    0.187E-02
RMM:   7    -0.115669099524E+04   -0.11106E-04   -0.80177E-05  7439   0.103E-02    0.113E-02
RMM:   8    -0.115669100125E+04   -0.60107E-05   -0.41971E-05  7007   0.859E-03
  11 F= -.11566910E+04 E0= -.11566910E+04  d E =-.106033E-01  mag=    14.0000
       N       E                     dE             d eps       ncg     rms          rms(c)
DAV:   1    -0.115668842842E+04    0.25668E-02   -0.40848E+00 12832   0.231E+00    0.442E-01
RMM:   2    -0.115669791519E+04   -0.94868E-02   -0.97391E-02 12697   0.390E-01    0.261E-01
RMM:   3    -0.115669796977E+04   -0.54575E-04   -0.49143E-03 12936   0.129E-01    0.164E-01
RMM:   4    -0.115669778424E+04    0.18553E-03   -0.11971E-03 13729   0.391E-02    0.853E-02
RMM:   5    -0.115669777694E+04    0.73042E-05   -0.35392E-04  9864   0.207E-02    0.290E-02
RMM:   6    -0.115669778329E+04   -0.63585E-05   -0.55652E-05  7274   0.124E-02    0.146E-02
RMM:   7    -0.115669779093E+04   -0.76407E-05   -0.57084E-05  7096   0.932E-03    0.978E-03
RMM:   8    -0.115669779620E+04   -0.52604E-05   -0.35754E-05  6832   0.789E-03
  12 F= -.11566978E+04 E0= -.11566978E+04  d E =-.679495E-02  mag=    14.0000
       N       E                     dE             d eps       ncg     rms          rms(c)
DAV:   1    -0.115669638605E+04    0.14049E-02   -0.27838E+00 12808   0.191E+00    0.369E-01
RMM:   2    -0.115670282486E+04   -0.64388E-02   -0.65963E-02 12568   0.321E-01    0.217E-01
RMM:   3    -0.115670289380E+04   -0.68933E-04   -0.34485E-03 12733   0.111E-01    0.136E-01
RMM:   4    -0.115670276941E+04    0.12438E-03   -0.82079E-04 12785   0.327E-02    0.725E-02
RMM:   5    -0.115670276176E+04    0.76549E-05   -0.24929E-04  8630   0.185E-02    0.263E-02
RMM:   6    -0.115670276725E+04   -0.54933E-05   -0.48510E-05  7154   0.116E-02    0.134E-02
RMM:   7    -0.115670277262E+04   -0.53701E-05   -0.42295E-05  6947   0.830E-03    0.994E-03
RMM:   8    -0.115670277648E+04   -0.38614E-05   -0.26500E-05  6755   0.740E-03
  13 F= -.11567028E+04 E0= -.11567028E+04  d E =-.498029E-02  mag=    14.0000
       N       E                     dE             d eps       ncg     rms          rms(c)
DAV:   1    -0.115670012782E+04    0.26448E-02   -0.31509E+00 12768   0.203E+00    0.393E-01
RMM:   2    -0.115670745243E+04   -0.73246E-02   -0.74413E-02 12531   0.341E-01    0.227E-01
RMM:   3    -0.115670755825E+04   -0.10582E-03   -0.39422E-03 12659   0.120E-01    0.142E-01
RMM:   4    -0.115670742689E+04    0.13136E-03   -0.91776E-04 13159   0.347E-02    0.760E-02
RMM:   5    -0.115670741908E+04    0.78024E-05   -0.28485E-04  8962   0.188E-02    0.288E-02
RMM:   6    -0.115670742455E+04   -0.54679E-05   -0.53266E-05  7175   0.118E-02    0.136E-02
RMM:   7    -0.115670742967E+04   -0.51134E-05   -0.42124E-05  6961   0.837E-03    0.937E-03
RMM:   8    -0.115670743336E+04   -0.36906E-05   -0.27162E-05  6789   0.753E-03
  14 F= -.11567074E+04 E0= -.11567074E+04  d E =-.465687E-02  mag=    14.0000
       N       E                     dE             d eps       ncg     rms          rms(c)
DAV:   1    -0.115670513275E+04    0.22969E-02   -0.26021E+00 12752   0.185E+00    0.358E-01
RMM:   2    -0.115671119761E+04   -0.60649E-02   -0.61521E-02 12598   0.309E-01    0.206E-01
RMM:   3    -0.115671126798E+04   -0.70372E-04   -0.31789E-03 12700   0.106E-01    0.128E-01
RMM:   4    -0.115671115561E+04    0.11237E-03   -0.73487E-04 12372   0.312E-02    0.691E-02
RMM:   5    -0.115671114743E+04    0.81792E-05   -0.22843E-04  8244   0.180E-02    0.246E-02
RMM:   6    -0.115671115298E+04   -0.55485E-05   -0.48358E-05  7127   0.115E-02    0.117E-02
RMM:   7    -0.115671115767E+04   -0.46877E-05   -0.38960E-05  6885   0.806E-03    0.888E-03
RMM:   8    -0.115671116058E+04   -0.29142E-05   -0.23250E-05  6728   0.729E-03
  15 F= -.11567112E+04 E0= -.11567112E+04  d E =-.372722E-02  mag=    14.0000
       N       E                     dE             d eps       ncg     rms          rms(c)
DAV:   1    -0.115670968774E+04    0.14699E-02   -0.18414E+00 12760   0.155E+00    0.299E-01
RMM:   2    -0.115671393583E+04   -0.42481E-02   -0.43481E-02 12545   0.260E-01    0.171E-01
RMM:   3    -0.115671398502E+04   -0.49198E-04   -0.22912E-03 12466   0.912E-02    0.107E-01
RMM:   4    -0.115671390561E+04    0.79411E-04   -0.53698E-04 11081   0.267E-02    0.583E-02
RMM:   5    -0.115671389867E+04    0.69437E-05   -0.14976E-04  7455   0.162E-02    0.232E-02
RMM:   6    -0.115671390458E+04   -0.59068E-05   -0.45013E-05  7045   0.108E-02    0.116E-02
RMM:   7    -0.115671390826E+04   -0.36883E-05   -0.30259E-05  6839   0.752E-03    0.899E-03
RMM:   8    -0.115671391065E+04   -0.23821E-05   -0.18427E-05  6630   0.671E-03
  16 F= -.11567139E+04 E0= -.11567139E+04  d E =-.275007E-02  mag=    14.0000
       N       E                     dE             d eps       ncg     rms          rms(c)
DAV:   1    -0.115671298653E+04    0.92173E-03   -0.12783E+00 12816   0.130E+00    0.244E-01
RMM:   2    -0.115671592404E+04   -0.29375E-02   -0.30277E-02 12515   0.217E-01    0.142E-01
RMM:   3    -0.115671595240E+04   -0.28360E-04   -0.15876E-03 12160   0.757E-02    0.892E-02
RMM:   4    -0.115671589616E+04    0.56246E-04   -0.37357E-04  9382   0.224E-02    0.481E-02
RMM:   5    -0.115671589162E+04    0.45377E-05   -0.10348E-04  7182   0.143E-02    0.178E-02
RMM:   6    -0.115671589658E+04   -0.49546E-05   -0.36686E-05  6979   0.948E-03    0.104E-02
RMM:   7    -0.115671589929E+04   -0.27181E-05   -0.22938E-05  6734   0.665E-03    0.792E-03
RMM:   8    -0.115671590119E+04   -0.18983E-05   -0.14186E-05  6457   0.584E-03
  17 F= -.11567159E+04 E0= -.11567159E+04  d E =-.199055E-02  mag=    14.0000
       N       E                     dE             d eps       ncg     rms          rms(c)
DAV:   1    -0.115671572466E+04    0.17463E-03   -0.64432E-01 12960   0.925E-01    0.172E-01
RMM:   2    -0.115671719884E+04   -0.14742E-02   -0.15468E-02 12569   0.155E-01    0.100E-01
RMM:   3    -0.115671720058E+04   -0.17397E-05   -0.76852E-04 10691   0.524E-02    0.648E-02
RMM:   4    -0.115671717045E+04    0.30133E-04   -0.16526E-04  7450   0.166E-02    0.340E-02
RMM:   5    -0.115671717165E+04   -0.12073E-05   -0.61820E-05  7059   0.111E-02    0.111E-02
RMM:   6    -0.115671717480E+04   -0.31498E-05   -0.24175E-05  6883   0.743E-03    0.108E-02
RMM:   7    -0.115671717652E+04   -0.17109E-05   -0.14983E-05  6454   0.524E-03    0.563E-03
RMM:   8    -0.115671717788E+04   -0.13643E-05   -0.93264E-06  5824   0.464E-03
  18 F= -.11567172E+04 E0= -.11567172E+04  d E =-.127669E-02  mag=    14.0000
       N       E                     dE             d eps       ncg     rms          rms(c)
DAV:   1    -0.115671678866E+04    0.38785E-03   -0.70610E-01 12808   0.970E-01    0.181E-01
RMM:   2    -0.115671840016E+04   -0.16115E-02   -0.16896E-02 12479   0.162E-01    0.105E-01
RMM:   3    -0.115671840540E+04   -0.52334E-05   -0.84563E-04 11005   0.558E-02    0.669E-02
RMM:   4    -0.115671837197E+04    0.33423E-04   -0.18271E-04  7552   0.171E-02    0.347E-02
RMM:   5    -0.115671837328E+04   -0.13077E-05   -0.61854E-05  7057   0.113E-02    0.126E-02
RMM:   6    -0.115671837654E+04   -0.32638E-05   -0.24833E-05  6905   0.746E-03    0.104E-02
RMM:   7    -0.115671837834E+04   -0.17969E-05   -0.15250E-05  6432   0.535E-03    0.567E-03
RMM:   8    -0.115671837974E+04   -0.13966E-05   -0.95211E-06  5828   0.462E-03
  19 F= -.11567184E+04 E0= -.11567184E+04  d E =-.120186E-02  mag=    14.0000
       N       E                     dE             d eps       ncg     rms          rms(c)
DAV:   1    -0.115671695420E+04    0.14241E-02   -0.12294E+00 12776   0.128E+00    0.236E-01
RMM:   2    -0.115671974755E+04   -0.27933E-02   -0.29128E-02 12472   0.212E-01    0.137E-01
RMM:   3    -0.115671976519E+04   -0.17642E-04   -0.14901E-03 12102   0.740E-02    0.868E-02
RMM:   4    -0.115671970999E+04    0.55196E-04   -0.33982E-04  8922   0.217E-02    0.470E-02
RMM:   5    -0.115671970704E+04    0.29513E-05   -0.93591E-05  7133   0.139E-02    0.172E-02
RMM:   6    -0.115671971183E+04   -0.47910E-05   -0.34765E-05  6972   0.916E-03    0.114E-02
RMM:   7    -0.115671971432E+04   -0.24899E-05   -0.21365E-05  6715   0.652E-03    0.757E-03
RMM:   8    -0.115671971611E+04   -0.17873E-05   -0.13374E-05  6347   0.558E-03
  20 F= -.11567197E+04 E0= -.11567197E+04  d E =-.133637E-02  mag=    14.0000
       N       E                     dE             d eps       ncg     rms          rms(c)
DAV:   1    -0.115671914292E+04    0.57140E-03   -0.56679E-01 12784   0.870E-01    0.160E-01
RMM:   2    -0.115672045075E+04   -0.13078E-02   -0.13757E-02 12649   0.146E-01    0.948E-02
RMM:   3    -0.115672044638E+04    0.43727E-05   -0.65021E-04 10171   0.483E-02    0.605E-02
RMM:   4    -0.115672041903E+04    0.27354E-04   -0.14522E-04  7343   0.159E-02    0.321E-02
RMM:   5    -0.115672042102E+04   -0.19966E-05   -0.53648E-05  7028   0.105E-02    0.138E-02
RMM:   6    -0.115672042394E+04   -0.29225E-05   -0.22132E-05  6877   0.704E-03    0.783E-03
RMM:   7    -0.115672042564E+04   -0.16929E-05   -0.13596E-05  6398   0.507E-03    0.600E-03
RMM:   8    -0.115672042689E+04   -0.12490E-05   -0.83997E-06  5677   0.437E-03
  21 F= -.11567204E+04 E0= -.11567204E+04  d E =-.710776E-03  mag=    14.0000
       N       E                     dE             d eps       ncg     rms          rms(c)
DAV:   1    -0.115672004993E+04    0.37571E-03   -0.36471E-01 12816   0.698E-01    0.129E-01
RMM:   2    -0.115672088977E+04   -0.83985E-03   -0.88316E-03 12456   0.117E-01    0.768E-02
RMM:   3    -0.115672088964E+04    0.13247E-06   -0.41690E-04  8969   0.400E-02    0.494E-02
RMM:   4    -0.115672087374E+04    0.15901E-04   -0.98262E-05  7098   0.131E-02    0.278E-02
RMM:   5    -0.115672087482E+04   -0.10834E-05   -0.36073E-05  6946   0.870E-03    0.183E-02
RMM:   6    -0.115672087695E+04   -0.21302E-05   -0.16529E-05  6724   0.614E-03    0.857E-03
RMM:   7    -0.115672087823E+04   -0.12746E-05   -0.96873E-06  6071   0.454E-03    0.621E-03
RMM:   8    -0.115672087900E+04   -0.76888E-06   -0.57984E-06  5064   0.381E-03
  22 F= -.11567209E+04 E0= -.11567209E+04  d E =-.452111E-03  mag=    14.0000
       N       E                     dE             d eps       ncg     rms          rms(c)
DAV:   1    -0.115672051347E+04    0.36476E-03   -0.31367E-01 12752   0.647E-01    0.124E-01
RMM:   2    -0.115672123936E+04   -0.72589E-03   -0.76064E-03 12454   0.109E-01    0.737E-02
RMM:   3    -0.115672123980E+04   -0.43953E-06   -0.35813E-04  8694   0.377E-02    0.467E-02
RMM:   4    -0.115672122590E+04    0.13900E-04   -0.86645E-05  7059   0.124E-02    0.271E-02
RMM:   5    -0.115672122657E+04   -0.67503E-06   -0.30820E-05  6892   0.824E-03    0.199E-02
RMM:   6    -0.115672122845E+04   -0.18753E-05   -0.15132E-05  6671   0.589E-03    0.850E-03
RMM:   7    -0.115672122958E+04   -0.11356E-05   -0.84195E-06  5791   0.439E-03    0.627E-03
RMM:   8    -0.115672123022E+04   -0.63327E-06   -0.49858E-06  4820   0.359E-03
  23 F= -.11567212E+04 E0= -.11567212E+04  d E =-.351220E-03  mag=    14.0000
       N       E                     dE             d eps       ncg     rms          rms(c)
DAV:   1    -0.115672040773E+04    0.82186E-03   -0.53638E-01 12736   0.843E-01    0.154E-01
RMM:   2    -0.115672162730E+04   -0.12196E-02   -0.12779E-02 12399   0.141E-01    0.896E-02
RMM:   3    -0.115672163404E+04   -0.67376E-05   -0.64552E-04 10170   0.493E-02    0.577E-02
RMM:   4    -0.115672161025E+04    0.23789E-04   -0.13527E-04  7257   0.150E-02    0.317E-02
RMM:   5    -0.115672161107E+04   -0.81610E-06   -0.47975E-05  6991   0.100E-02    0.191E-02
RMM:   6    -0.115672161365E+04   -0.25846E-05   -0.19978E-05  6802   0.679E-03    0.102E-02
RMM:   7    -0.115672161519E+04   -0.15408E-05   -0.11921E-05  6250   0.487E-03    0.679E-03
RMM:   8    -0.115672161610E+04   -0.90436E-06   -0.70805E-06  5442   0.419E-03
  24 F= -.11567216E+04 E0= -.11567216E+04  d E =-.385880E-03  mag=    14.0000
