       N       E                     dE             d eps       ncg     rms          rms(c)
DAV:   1     0.121938342207E+05    0.12194E+05   -0.42962E+05 12320   0.133E+03
DAV:   2     0.720774658336E+03   -0.11473E+05   -0.10250E+05 12320   0.383E+02
DAV:   3    -0.136236349765E+04   -0.20831E+04   -0.20018E+04 13296   0.169E+02
DAV:   4    -0.150473054172E+04   -0.14237E+03   -0.14007E+03 16168   0.470E+01
DAV:   5    -0.151413537449E+04   -0.94048E+01   -0.93626E+01 22104   0.112E+01    0.180E+02
RMM:   6    -0.117589548648E+04    0.33824E+03   -0.17270E+03 12539   0.374E+01    0.151E+02
RMM:   7    -0.117268465953E+04    0.32108E+01   -0.70537E+01 12992   0.124E+01    0.976E+01
RMM:   8    -0.120348127350E+04   -0.30797E+02   -0.20977E+02 15484   0.115E+01    0.120E+02
RMM:   9    -0.116655212048E+04    0.36929E+02   -0.32295E+01 12923   0.589E+00    0.528E+01
RMM:  10    -0.119071187060E+04   -0.24160E+02   -0.22487E+01 13297   0.391E+00    0.610E+01
RMM:  11    -0.115498282487E+04    0.35729E+02   -0.19040E+01 12570   0.566E+00    0.380E+01
RMM:  12    -0.115613220060E+04   -0.11494E+01   -0.32700E+00 14322   0.168E+00    0.313E+01
RMM:  13    -0.115776912836E+04   -0.16369E+01   -0.83130E-01 13483   0.119E+00    0.274E+01
RMM:  14    -0.115932417921E+04   -0.15551E+01   -0.10531E+00 13478   0.112E+00    0.215E+01
RMM:  15    -0.116013860253E+04   -0.81442E+00   -0.66834E-01 13710   0.997E-01    0.157E+01
RMM:  16    -0.116054578850E+04   -0.40719E+00   -0.38024E-01 14255   0.701E-01    0.117E+01
RMM:  17    -0.116065659958E+04   -0.11081E+00   -0.14246E-01 14792   0.407E-01    0.856E+00
RMM:  18    -0.116064368562E+04    0.12914E-01   -0.11664E-01 13511   0.361E-01    0.586E+00
RMM:  19    -0.116061446138E+04    0.29224E-01   -0.56321E-02 13828   0.294E-01    0.434E+00
RMM:  20    -0.116060786360E+04    0.65978E-02   -0.16543E-02 15857   0.131E-01    0.408E+00
RMM:  21    -0.116060851323E+04   -0.64963E-03   -0.44025E-03 14235   0.691E-02    0.385E+00
RMM:  22    -0.116061306296E+04   -0.45497E-02   -0.20100E-02 12609   0.188E-01    0.277E+00
RMM:  23    -0.116061516373E+04   -0.21008E-02   -0.18240E-02 13511   0.181E-01    0.163E+00
RMM:  24    -0.116061539361E+04   -0.22988E-03   -0.80984E-03 13860   0.110E-01    0.944E-01
RMM:  25    -0.116061690830E+04   -0.15147E-02   -0.22318E-03 12195   0.578E-02    0.729E-01
RMM:  26    -0.116061865577E+04   -0.17475E-02   -0.13863E-03 10958   0.506E-02    0.504E-01
RMM:  27    -0.116062145091E+04   -0.27951E-02   -0.21904E-03 10923   0.667E-02    0.287E-01
RMM:  28    -0.116062417507E+04   -0.27242E-02   -0.22444E-03 10911   0.656E-02    0.151E-01
RMM:  29    -0.116062522022E+04   -0.10451E-02   -0.73781E-04  9707   0.336E-02    0.130E-01
RMM:  30    -0.116062487774E+04    0.34248E-03   -0.77573E-05  7995   0.142E-02    0.135E-01
RMM:  31    -0.116062617147E+04   -0.12937E-02   -0.33174E-04  8868   0.281E-02    0.124E-01
RMM:  32    -0.116063162227E+04   -0.54508E-02   -0.62881E-03 11130   0.115E-01    0.125E-01
RMM:  33    -0.116063598313E+04   -0.43609E-02   -0.66021E-03 11237   0.112E-01    0.177E-01
RMM:  34    -0.116063708269E+04   -0.10996E-02   -0.14568E-03 10460   0.429E-02    0.171E-01
RMM:  35    -0.116063697908E+04    0.10360E-03   -0.10217E-04  7635   0.146E-02    0.172E-01
RMM:  36    -0.116063732934E+04   -0.35026E-03   -0.58747E-05  7330   0.117E-02    0.168E-01
RMM:  37    -0.116063883821E+04   -0.15089E-02   -0.60993E-04  8930   0.337E-02    0.165E-01
RMM:  38    -0.116064204612E+04   -0.32079E-02   -0.33507E-03 10482   0.774E-02    0.122E-01
RMM:  39    -0.116064332071E+04   -0.12746E-02   -0.10974E-03  9326   0.385E-02    0.123E-01
RMM:  40    -0.116064320351E+04    0.11720E-03   -0.12826E-04  7415   0.147E-02
   1 F= -.11606432E+04 E0= -.11606241E+04  d E =-.116064E+04  mag=     9.6144
       N       E                     dE             d eps       ncg     rms          rms(c)
DAV:   1    -0.115395896722E+04    0.66844E+01   -0.35570E+02 13608   0.192E+01    0.121E+01
RMM:   2    -0.116147335867E+04   -0.75144E+01   -0.16041E+01 12612   0.494E+00    0.181E+01
RMM:   3    -0.116167805535E+04   -0.20470E+00   -0.98211E-01 12671   0.192E+00    0.654E+00
RMM:   4    -0.116168100339E+04   -0.29480E-02   -0.57376E-01 14131   0.888E-01    0.346E+00
RMM:   5    -0.116174958704E+04   -0.68584E-01   -0.12430E-01 13703   0.427E-01    0.424E+00
RMM:   6    -0.116176545968E+04   -0.15873E-01   -0.16904E-01 12792   0.493E-01    0.296E+00
RMM:   7    -0.116188078419E+04   -0.11532E+00   -0.97760E-02 14365   0.324E-01    0.244E+00
RMM:   8    -0.116200959663E+04   -0.12881E+00   -0.66428E-02 13054   0.333E-01    0.221E+00
RMM:   9    -0.116212025267E+04   -0.11066E+00   -0.45572E-02 13232   0.272E-01    0.199E+00
RMM:  10    -0.116234362049E+04   -0.22337E+00   -0.78594E-02 12573   0.366E-01    0.836E+00
RMM:  11    -0.116240351338E+04   -0.59893E-01   -0.31237E-02 14029   0.193E-01    0.955E+00
RMM:  12    -0.116244396764E+04   -0.40454E-01   -0.22796E-02 13203   0.164E-01    0.104E+01
RMM:  13    -0.116243971728E+04    0.42504E-02   -0.58578E-03 12010   0.948E-02    0.980E+00
RMM:  14    -0.116249190838E+04   -0.52191E-01   -0.42967E-02 12915   0.227E-01    0.863E+00
RMM:  15    -0.116249877015E+04   -0.68618E-02   -0.17062E-02 14356   0.136E-01    0.790E+00
RMM:  16    -0.116247963670E+04    0.19133E-01   -0.53185E-02 12693   0.250E-01    0.585E+00
RMM:  17    -0.116252887543E+04   -0.49239E-01   -0.42252E-01 13335   0.762E-01    0.404E+00
RMM:  18    -0.116255648997E+04   -0.27615E-01   -0.54656E-02 15202   0.276E-01    0.497E+00
RMM:  19    -0.116257302544E+04   -0.16535E-01   -0.11844E-02 16610   0.120E-01    0.544E+00
RMM:  20    -0.116256627686E+04    0.67486E-02   -0.64579E-03 14164   0.867E-02    0.550E+00
RMM:  21    -0.116250741820E+04    0.58859E-01   -0.14812E-02 13191   0.133E-01    0.340E+00
RMM:  22    -0.116248414131E+04    0.23277E-01   -0.22515E-02 13970   0.147E-01    0.154E+00
RMM:  23    -0.116247748174E+04    0.66596E-02   -0.36422E-02 14086   0.185E-01    0.322E+00
RMM:  24    -0.116247659384E+04    0.88790E-03   -0.47846E-03 12703   0.924E-02    0.144E+00
RMM:  25    -0.116247588426E+04    0.70958E-03   -0.22912E-03 11522   0.695E-02    0.143E+00
RMM:  26    -0.116247303434E+04    0.28499E-02   -0.16897E-03 11183   0.555E-02    0.178E+00
RMM:  27    -0.116247227033E+04    0.76401E-03   -0.14662E-03  9704   0.514E-02    0.170E+00
RMM:  28    -0.116246510604E+04    0.71643E-02   -0.34810E-03 11188   0.727E-02    0.198E+00
RMM:  29    -0.116245646741E+04    0.86386E-02   -0.26382E-03 11182   0.598E-02    0.196E+00
RMM:  30    -0.116245137092E+04    0.50965E-02   -0.98611E-04 10091   0.321E-02    0.204E+00
RMM:  31    -0.116245400079E+04   -0.26299E-02   -0.75083E-05  7305   0.155E-02    0.198E+00
RMM:  32    -0.116245927790E+04   -0.52771E-02   -0.22510E-04  7613   0.198E-02    0.196E+00
RMM:  33    -0.116244707334E+04    0.12205E-01   -0.10897E-03 10298   0.398E-02    0.217E+00
RMM:  34    -0.116246865095E+04   -0.21578E-01   -0.36627E-03 11570   0.734E-02    0.175E+00
RMM:  35    -0.116248938926E+04   -0.20738E-01   -0.99469E-03 13066   0.118E-01    0.126E+00
RMM:  36    -0.116248807891E+04    0.13104E-02   -0.60674E-04  9042   0.400E-02    0.150E+00
RMM:  37    -0.116248622048E+04    0.18584E-02   -0.14180E-04  7452   0.185E-02    0.159E+00
RMM:  38    -0.116250064700E+04   -0.14427E-01   -0.47489E-03 11900   0.851E-02    0.143E+00
RMM:  39    -0.116250439517E+04   -0.37482E-02   -0.16172E-03 10910   0.496E-02    0.141E+00
RMM:  40    -0.116250472989E+04   -0.33471E-03   -0.25177E-04  7999   0.189E-02
   2 F= -.11625047E+04 E0= -.11624843E+04  d E =-.186153E+01  mag=     7.9928
       N       E                     dE             d eps       ncg     rms          rms(c)
DAV:   1    -0.116250352682E+04    0.86836E-03   -0.12630E-02 13432   0.118E-01    0.138E+00
RMM:   2    -0.116253671041E+04   -0.33184E-01   -0.26081E-02 12185   0.175E-01    0.364E+00
RMM:   3    -0.116250893220E+04    0.27778E-01   -0.50168E-02 12289   0.274E-01    0.266E+00
RMM:   4    -0.116249796369E+04    0.10969E-01   -0.11024E-02 12651   0.137E-01    0.131E+00
RMM:   5    -0.116249531996E+04    0.26437E-02   -0.22811E-03 11900   0.558E-02    0.116E+00
RMM:   6    -0.116250050538E+04   -0.51854E-02   -0.67524E-04  9952   0.344E-02    0.111E+00
RMM:   7    -0.116250689773E+04   -0.63924E-02   -0.23428E-03 11727   0.515E-02    0.115E+00
RMM:   8    -0.116249614665E+04    0.10751E-01   -0.29292E-03 11557   0.682E-02    0.107E+00
RMM:   9    -0.116247455714E+04    0.21590E-01   -0.12556E-02 13037   0.121E-01    0.163E+00
RMM:  10    -0.116248826309E+04   -0.13706E-01   -0.15541E-03 10667   0.565E-02    0.135E+00
RMM:  11    -0.116250174374E+04   -0.13481E-01   -0.68032E-03 12622   0.910E-02    0.961E-01
RMM:  12    -0.116255520083E+04   -0.53457E-01   -0.21244E-02 12935   0.168E-01    0.497E+00
RMM:  13    -0.116251797720E+04    0.37224E-01   -0.32151E-03 11665   0.118E-01    0.302E+00
RMM:  14    -0.116252205676E+04   -0.40796E-02   -0.43301E-04  9015   0.396E-02    0.309E+00
RMM:  15    -0.116252234176E+04   -0.28500E-03   -0.51362E-04  9382   0.301E-02    0.301E+00
RMM:  16    -0.116255439507E+04   -0.32053E-01   -0.27746E-03 12269   0.576E-02    0.496E+00
RMM:  17    -0.116249968423E+04    0.54711E-01   -0.61834E-03 12081   0.108E-01    0.130E+00
RMM:  18    -0.116250585675E+04   -0.61725E-02   -0.20911E-03 11319   0.855E-02    0.981E-01
RMM:  19    -0.116249807355E+04    0.77832E-02   -0.50062E-03 12846   0.860E-02    0.986E-01
RMM:  20    -0.116248004202E+04    0.18032E-01   -0.10177E-02 12999   0.113E-01    0.145E+00
RMM:  21    -0.116247558685E+04    0.44552E-02   -0.21914E-03 11595   0.569E-02    0.154E+00
RMM:  22    -0.116246960454E+04    0.59823E-02   -0.11756E-03 10871   0.334E-02    0.165E+00
RMM:  23    -0.116245900034E+04    0.10604E-01   -0.14073E-03 10979   0.428E-02    0.181E+00
RMM:  24    -0.116243973181E+04    0.19269E-01   -0.34817E-03 12386   0.646E-02    0.208E+00
RMM:  25    -0.116243584729E+04    0.38845E-02   -0.57136E-04  9258   0.298E-02    0.212E+00
RMM:  26    -0.116243681061E+04   -0.96332E-03   -0.74502E-05  7432   0.128E-02    0.211E+00
RMM:  27    -0.116243309427E+04    0.37163E-02   -0.15303E-04  7563   0.151E-02    0.216E+00
RMM:  28    -0.116243329290E+04   -0.19863E-03   -0.32608E-05  6944   0.101E-02    0.216E+00
RMM:  29    -0.116243207123E+04    0.12217E-02   -0.33440E-05  6840   0.751E-03    0.217E+00
RMM:  30    -0.116242665255E+04    0.54187E-02   -0.18050E-04  7693   0.157E-02    0.223E+00
RMM:  31    -0.116241198757E+04    0.14665E-01   -0.12623E-03 10519   0.379E-02    0.239E+00
RMM:  32    -0.116242150651E+04   -0.95189E-02   -0.30405E-04  8299   0.291E-02    0.230E+00
RMM:  33    -0.116242189934E+04   -0.39283E-03   -0.35017E-05  6824   0.963E-03    0.230E+00
RMM:  34    -0.116242185766E+04    0.41680E-04   -0.90755E-06  5926   0.501E-03
   3 F= -.11624219E+04 E0= -.11624083E+04  d E =-.177865E+01  mag=     8.5614
       N       E                     dE             d eps       ncg     rms          rms(c)
DAV:   1    -0.116242603032E+04   -0.41310E-02   -0.49461E-02 13240   0.226E-01    0.224E+00
RMM:   2    -0.116263323860E+04   -0.20721E+00   -0.33676E-01 12194   0.625E-01    0.787E+00
RMM:   3    -0.116259161519E+04    0.41623E-01   -0.18726E-02 12759   0.161E-01    0.659E+00
RMM:   4    -0.116254310612E+04    0.48509E-01   -0.35647E-02 12515   0.183E-01    0.557E+00
RMM:   5    -0.116252274083E+04    0.20365E-01   -0.32339E-02 14151   0.178E-01    0.389E+00
RMM:   6    -0.116253375555E+04   -0.11015E-01   -0.32040E-02 13032   0.199E-01    0.314E+00
RMM:   7    -0.116240763451E+04    0.12612E+00   -0.14763E-01 12246   0.424E-01    0.261E+00
RMM:   8    -0.116224452994E+04    0.16310E+00   -0.16427E-01 13729   0.423E-01    0.440E+00
RMM:   9    -0.116243776743E+04   -0.19324E+00   -0.70600E-02 12258   0.324E-01    0.238E+00
RMM:  10    -0.116247809164E+04   -0.40324E-01   -0.33080E-02 13980   0.225E-01    0.160E+00
RMM:  11    -0.116250153792E+04   -0.23446E-01   -0.19885E-02 13321   0.163E-01    0.148E+00
RMM:  12    -0.116263707819E+04   -0.13554E+00   -0.57130E-02 12630   0.264E-01    0.660E+00
RMM:  13    -0.116250518374E+04    0.13189E+00   -0.12992E-02 12366   0.200E-01    0.216E+00
RMM:  14    -0.116255997680E+04   -0.54793E-01   -0.43387E-03 12147   0.103E-01    0.525E+00
RMM:  15    -0.116254783545E+04    0.12141E-01   -0.72942E-04 10051   0.490E-02    0.504E+00
RMM:  16    -0.116250300913E+04    0.44826E-01   -0.44084E-03 11635   0.848E-02    0.148E+00
RMM:  17    -0.116251234755E+04   -0.93384E-02   -0.15196E-03 10911   0.777E-02    0.132E+00
RMM:  18    -0.116250989190E+04    0.24556E-02   -0.85082E-04 10011   0.502E-02    0.944E-01
RMM:  19    -0.116250964076E+04    0.25114E-03   -0.32116E-04  8451   0.310E-02    0.886E-01
RMM:  20    -0.116250333685E+04    0.63039E-02   -0.17213E-03 11210   0.459E-02    0.933E-01
RMM:  21    -0.116249308158E+04    0.10255E-01   -0.35969E-03 12577   0.650E-02    0.119E+00
RMM:  22    -0.116248599317E+04    0.70884E-02   -0.18592E-03 11538   0.482E-02    0.136E+00
RMM:  23    -0.116248261761E+04    0.33756E-02   -0.54739E-04  9081   0.283E-02    0.142E+00
RMM:  24    -0.116247716159E+04    0.54560E-02   -0.69700E-04  9776   0.296E-02    0.153E+00
RMM:  25    -0.116245267416E+04    0.24487E-01   -0.61563E-03 12640   0.854E-02    0.193E+00
RMM:  26    -0.116244076154E+04    0.11913E-01   -0.22927E-03 11858   0.558E-02    0.209E+00
RMM:  27    -0.116243962424E+04    0.11373E-02   -0.31123E-04  8250   0.200E-02    0.210E+00
RMM:  28    -0.116243881888E+04    0.80536E-03   -0.66399E-05  7282   0.127E-02    0.211E+00
RMM:  29    -0.116243944203E+04   -0.62315E-03   -0.24432E-05  6955   0.821E-03    0.210E+00
RMM:  30    -0.116243853347E+04    0.90856E-03   -0.21696E-05  6790   0.649E-03    0.211E+00
RMM:  31    -0.116243994539E+04   -0.14119E-02   -0.18324E-05  6413   0.692E-03    0.209E+00
RMM:  32    -0.116243327259E+04    0.66728E-02   -0.19527E-04  7734   0.171E-02    0.216E+00
RMM:  33    -0.116240291796E+04    0.30355E-01   -0.39798E-03 11720   0.665E-02    0.249E+00
RMM:  34    -0.116240640245E+04   -0.34845E-02   -0.18012E-04  7945   0.247E-02    0.245E+00
RMM:  35    -0.116240962256E+04   -0.32201E-02   -0.53020E-05  7007   0.108E-02    0.242E+00
RMM:  36    -0.116240203237E+04    0.75902E-02   -0.23691E-04  7960   0.186E-02    0.249E+00
RMM:  37    -0.116241571869E+04   -0.13686E-01   -0.65979E-04  9249   0.317E-02    0.233E+00
RMM:  38    -0.116243978213E+04   -0.24063E-01   -0.30415E-03 11804   0.599E-02    0.205E+00
RMM:  39    -0.116245843476E+04   -0.18653E-01   -0.31366E-03 12021   0.637E-02    0.181E+00
RMM:  40    -0.116246962820E+04   -0.11193E-01   -0.19038E-03 11482   0.478E-02
   4 F= -.11624696E+04 E0= -.11624537E+04  d E =-.182642E+01  mag=     8.2750
       N       E                     dE             d eps       ncg     rms          rms(c)
DAV:   1    -0.116239205384E+04    0.66381E-01   -0.96925E+01 12664   0.109E+01    0.494E+00
RMM:   2    -0.116283342232E+04   -0.44137E+00   -0.30634E+00 12306   0.235E+00    0.996E+00
RMM:   3    -0.116274632876E+04    0.87094E-01   -0.25519E-01 12628   0.959E-01    0.312E+00
RMM:   4    -0.116274444057E+04    0.18882E-02   -0.71056E-02 15176   0.296E-01    0.151E+00
RMM:   5    -0.116274113241E+04    0.33082E-02   -0.19664E-02 13330   0.154E-01    0.225E+00
RMM:   6    -0.116275308759E+04   -0.11955E-01   -0.20737E-02 13156   0.154E-01    0.352E+00
RMM:   7    -0.116275146027E+04    0.16273E-02   -0.26063E-03 12516   0.999E-02    0.364E+00
RMM:   8    -0.116274351565E+04    0.79446E-02   -0.51425E-03 12757   0.755E-02    0.214E+00
RMM:   9    -0.116273697937E+04    0.65363E-02   -0.53904E-03 12561   0.853E-02    0.113E+00
RMM:  10    -0.116273484450E+04    0.21349E-02   -0.25415E-03 12572   0.563E-02    0.679E-01
RMM:  11    -0.116273499882E+04   -0.15433E-03   -0.75816E-04 10609   0.403E-02    0.475E-01
RMM:  12    -0.116273420921E+04    0.78961E-03   -0.78570E-04 10606   0.337E-02    0.401E-01
RMM:  13    -0.116273368034E+04    0.52887E-03   -0.84178E-04 10569   0.359E-02    0.428E-01
RMM:  14    -0.116273298573E+04    0.69461E-03   -0.38848E-04  8845   0.242E-02    0.469E-01
RMM:  15    -0.116273317946E+04   -0.19373E-03   -0.48930E-05  7168   0.130E-02    0.456E-01
RMM:  16    -0.116273305227E+04    0.12720E-03   -0.38037E-05  7033   0.792E-03    0.470E-01
RMM:  17    -0.116273417320E+04   -0.11209E-02   -0.24903E-04  7905   0.214E-02    0.410E-01
RMM:  18    -0.116273580745E+04   -0.16343E-02   -0.89687E-04 10037   0.318E-02    0.495E-01
RMM:  19    -0.116273577281E+04    0.34638E-04   -0.77637E-05  7100   0.172E-02
   5 F= -.11627358E+04 E0= -.11627195E+04  d E =-.266145E+00  mag=     7.9453
       N       E                     dE             d eps       ncg     rms          rms(c)
DAV:   1    -0.116273601910E+04   -0.21164E-03   -0.27769E-01 13840   0.583E-01    0.515E-01
RMM:   2    -0.116274785481E+04   -0.11836E-01   -0.18698E-02 12196   0.176E-01    0.317E+00
RMM:   3    -0.116274750779E+04    0.34702E-03   -0.15047E-03 12105   0.638E-02    0.320E+00
RMM:   4    -0.116273717584E+04    0.10332E-01   -0.67503E-03 12088   0.961E-02    0.103E+00
RMM:   5    -0.116273769824E+04   -0.52239E-03   -0.75889E-04 10415   0.349E-02    0.968E-01
RMM:   6    -0.116273571950E+04    0.19787E-02   -0.12108E-03 10707   0.422E-02    0.614E-01
RMM:   7    -0.116273511079E+04    0.60871E-03   -0.90841E-04 10683   0.338E-02    0.545E-01
RMM:   8    -0.116273471944E+04    0.39135E-03   -0.20179E-04  7653   0.211E-02    0.577E-01
RMM:   9    -0.116273551324E+04   -0.79379E-03   -0.11048E-04  7294   0.175E-02    0.542E-01
RMM:  10    -0.116273615281E+04   -0.63957E-03   -0.24605E-04  8012   0.175E-02    0.478E-01
RMM:  11    -0.116273730199E+04   -0.11492E-02   -0.46975E-04  8992   0.239E-02    0.576E-01
RMM:  12    -0.116274238813E+04   -0.50861E-02   -0.17934E-03 11369   0.442E-02    0.158E+00
RMM:  13    -0.116273670563E+04    0.56825E-02   -0.10500E-03 10450   0.496E-02    0.635E-01
RMM:  14    -0.116273516378E+04    0.15418E-02   -0.17451E-03 11231   0.485E-02    0.498E-01
RMM:  15    -0.116273491773E+04    0.24605E-03   -0.47720E-04  8651   0.306E-02    0.460E-01
RMM:  16    -0.116273381717E+04    0.11006E-02   -0.62069E-04  9358   0.285E-02    0.525E-01
RMM:  17    -0.116273098520E+04    0.28320E-02   -0.16594E-03 11202   0.441E-02    0.694E-01
RMM:  18    -0.116272800860E+04    0.29766E-02   -0.13066E-03 10588   0.390E-02    0.837E-01
RMM:  19    -0.116272763901E+04    0.36959E-03   -0.17529E-04  7627   0.177E-02    0.851E-01
RMM:  20    -0.116272663525E+04    0.10038E-02   -0.17409E-04  7622   0.152E-02    0.901E-01
RMM:  21    -0.116272679800E+04   -0.16275E-03   -0.34749E-05  6855   0.110E-02    0.896E-01
RMM:  22    -0.116272733481E+04   -0.53682E-03   -0.19475E-05  6422   0.639E-03    0.874E-01
RMM:  23    -0.116272668205E+04    0.65277E-03   -0.26656E-05  6519   0.701E-03    0.902E-01
RMM:  24    -0.116272540919E+04    0.12729E-02   -0.92784E-05  7077   0.105E-02    0.949E-01
RMM:  25    -0.116272702666E+04   -0.16175E-02   -0.69272E-05  6880   0.133E-02    0.898E-01
RMM:  26    -0.116273078800E+04   -0.37613E-02   -0.78701E-04  9565   0.302E-02    0.737E-01
RMM:  27    -0.116273322737E+04   -0.24394E-02   -0.75477E-04  9615   0.312E-02    0.611E-01
RMM:  28    -0.116273394238E+04   -0.71501E-03   -0.16642E-04  7529   0.168E-02    0.586E-01
RMM:  29    -0.116273693589E+04   -0.29935E-02   -0.17925E-03 11009   0.435E-02    0.420E-01
RMM:  30    -0.116273777606E+04   -0.84017E-03   -0.48904E-04  8933   0.285E-02    0.443E-01
RMM:  31    -0.116273749601E+04    0.28005E-03   -0.52409E-05  7039   0.117E-02    0.429E-01
RMM:  32    -0.116273732080E+04    0.17521E-03   -0.18168E-05  6668   0.707E-03    0.425E-01
RMM:  33    -0.116273612485E+04    0.11959E-02   -0.38186E-04  8336   0.223E-02    0.462E-01
RMM:  34    -0.116273261747E+04    0.35074E-02   -0.28119E-03 11577   0.572E-02    0.708E-01
RMM:  35    -0.116273114995E+04    0.14675E-02   -0.79727E-04  9648   0.337E-02    0.796E-01
RMM:  36    -0.116273378809E+04   -0.26381E-02   -0.40268E-04  8332   0.260E-02    0.642E-01
RMM:  37    -0.116273524400E+04   -0.14559E-02   -0.40888E-04  8437   0.226E-02    0.544E-01
RMM:  38    -0.116273646460E+04   -0.12206E-02   -0.41658E-04  8490   0.232E-02    0.461E-01
RMM:  39    -0.116273672344E+04   -0.25884E-03   -0.10575E-04  6875   0.154E-02    0.442E-01
RMM:  40    -0.116273862780E+04   -0.19044E-02   -0.12114E-03 10412   0.388E-02
   6 F= -.11627386E+04 E0= -.11627235E+04  d E =-.269000E+00  mag=     7.9505
       N       E                     dE             d eps       ncg     rms          rms(c)
DAV:   1    -0.116274124119E+04   -0.45178E-02   -0.31488E+01 12488   0.636E+00    0.220E+00
RMM:   2    -0.116281839746E+04   -0.77156E-01   -0.88243E-01 12305   0.126E+00    0.421E+00
RMM:   3    -0.116280884234E+04    0.95551E-02   -0.79939E-02 12559   0.564E-01    0.132E+00
RMM:   4    -0.116280656128E+04    0.22811E-02   -0.18780E-02 15560   0.178E-01    0.150E+00
RMM:   5    -0.116281001301E+04   -0.34517E-02   -0.10821E-02 14348   0.995E-02    0.274E+00
RMM:   6    -0.116280523228E+04    0.47807E-02   -0.18060E-03 12189   0.708E-02    0.196E+00
RMM:   7    -0.116279998272E+04    0.52496E-02   -0.68542E-03 12505   0.792E-02    0.125E+00
RMM:   8    -0.116279925590E+04    0.72682E-03   -0.17256E-03 11326   0.627E-02    0.322E-01
RMM:   9    -0.116279970803E+04   -0.45213E-03   -0.59646E-04 10241   0.396E-02    0.223E-01
RMM:  10    -0.116279975877E+04   -0.50742E-04   -0.21652E-04  8113   0.263E-02
   7 F= -.11627998E+04 E0= -.11627854E+04  d E =-.611310E-01  mag=     7.8835
       N       E                     dE             d eps       ncg     rms          rms(c)
DAV:   1    -0.116280003227E+04   -0.32424E-03   -0.27222E-01 13872   0.591E-01    0.300E-01
RMM:   2    -0.116280136775E+04   -0.13355E-02   -0.75582E-03 12194   0.117E-01    0.646E-01
RMM:   3    -0.116280056941E+04    0.79834E-03   -0.88118E-04 10969   0.564E-02    0.281E-01
RMM:   4    -0.116280046692E+04    0.10249E-03   -0.41262E-04  9418   0.243E-02    0.140E-01
RMM:   5    -0.116280056143E+04   -0.94511E-04   -0.19008E-04  7708   0.217E-02    0.343E-01
RMM:   6    -0.116280039160E+04    0.16984E-03   -0.19899E-04  7528   0.192E-02    0.981E-02
RMM:   7    -0.116280040907E+04   -0.17476E-04   -0.19099E-04  7717   0.175E-02    0.117E-01
RMM:   8    -0.116280041722E+04   -0.81522E-05   -0.75538E-05  6940   0.123E-02
   8 F= -.11628004E+04 E0= -.11627874E+04  d E =-.617894E-01  mag=     7.9317
       N       E                     dE             d eps       ncg     rms          rms(c)
DAV:   1    -0.116279008870E+04    0.10320E-01   -0.23087E+01 12624   0.550E+00    0.130E+00
RMM:   2    -0.116284354961E+04   -0.53461E-01   -0.57365E-01 12352   0.100E+00    0.106E+00
RMM:   3    -0.116284631223E+04   -0.27626E-02   -0.42581E-02 12652   0.443E-01    0.846E-01
RMM:   4    -0.116284556658E+04    0.74564E-03   -0.86157E-03 17503   0.119E-01    0.423E-01
RMM:   5    -0.116284458717E+04    0.97941E-03   -0.44751E-03 14067   0.622E-02    0.280E-01
RMM:   6    -0.116284468679E+04   -0.99620E-04   -0.14191E-03 12599   0.486E-02    0.178E-01
RMM:   7    -0.116284472805E+04   -0.41262E-04   -0.31032E-04  9273   0.214E-02    0.617E-02
RMM:   8    -0.116284481956E+04   -0.91511E-04   -0.12206E-04  7664   0.159E-02
   9 F= -.11628448E+04 E0= -.11628341E+04  d E =-.444023E-01  mag=     7.9374
       N       E                     dE             d eps       ncg     rms          rms(c)
DAV:   1    -0.116283144787E+04    0.13280E-01   -0.11006E+01 12672   0.380E+00    0.885E-01
RMM:   2    -0.116285713463E+04   -0.25687E-01   -0.27496E-01 12353   0.693E-01    0.581E-01
RMM:   3    -0.116285833127E+04   -0.11966E-02   -0.19365E-02 12647   0.300E-01    0.354E-01
RMM:   4    -0.116285805270E+04    0.27857E-03   -0.49030E-03 17033   0.830E-02    0.265E-01
RMM:   5    -0.116285802108E+04    0.31624E-04   -0.16503E-03 14210   0.421E-02    0.256E-01
RMM:   6    -0.116285809465E+04   -0.73572E-04   -0.44094E-04 10094   0.267E-02    0.952E-02
RMM:   7    -0.116285819499E+04   -0.10034E-03   -0.17674E-04  7947   0.181E-02    0.528E-02
RMM:   8    -0.116285831797E+04   -0.12298E-03   -0.10827E-04  7504   0.147E-02    0.603E-02
RMM:   9    -0.116285849122E+04   -0.17325E-03   -0.13893E-04  7618   0.168E-02    0.365E-02
RMM:  10    -0.116285860167E+04   -0.11045E-03   -0.90066E-05  7268   0.125E-02    0.343E-02
RMM:  11    -0.116285873638E+04   -0.13471E-03   -0.90508E-05  7301   0.130E-02    0.366E-02
RMM:  12    -0.116285899005E+04   -0.25367E-03   -0.28612E-04  7963   0.216E-02    0.335E-02
RMM:  13    -0.116285933347E+04   -0.34342E-03   -0.75450E-04  8634   0.343E-02    0.302E-02
RMM:  14    -0.116285968279E+04   -0.34932E-03   -0.13280E-03  9147   0.453E-02    0.254E-02
RMM:  15    -0.116285988322E+04   -0.20043E-03   -0.53147E-04  8245   0.268E-02    0.220E-02
RMM:  16    -0.116286002723E+04   -0.14401E-03   -0.45290E-04  8203   0.255E-02    0.192E-02
RMM:  17    -0.116286017458E+04   -0.14735E-03   -0.12974E-03  9245   0.451E-02    0.213E-02
RMM:  18    -0.116286029381E+04   -0.11923E-03   -0.44867E-04  8117   0.240E-02    0.178E-02
RMM:  19    -0.116286033902E+04   -0.45212E-04   -0.37443E-04  8126   0.233E-02
  10 F= -.11628603E+04 E0= -.11628522E+04  d E =-.599218E-01  mag=     7.9605
       N       E                     dE             d eps       ncg     rms          rms(c)
DAV:   1    -0.116284538831E+04    0.14905E-01   -0.23041E+01 12592   0.548E+00    0.153E+00
RMM:   2    -0.116290163791E+04   -0.56250E-01   -0.61678E-01 12323   0.103E+00    0.104E+00
RMM:   3    -0.116290428798E+04   -0.26501E-02   -0.42924E-02 12720   0.427E-01    0.633E-01
RMM:   4    -0.116290370568E+04    0.58230E-03   -0.11211E-02 16070   0.126E-01    0.411E-01
RMM:   5    -0.116290365305E+04    0.52630E-04   -0.33015E-03 14606   0.653E-02    0.205E-01
RMM:   6    -0.116290390508E+04   -0.25203E-03   -0.10234E-03 12174   0.414E-02    0.133E-01
RMM:   7    -0.116290399524E+04   -0.90163E-04   -0.31812E-04  9468   0.219E-02    0.756E-02
RMM:   8    -0.116290413942E+04   -0.14417E-03   -0.20853E-04  8249   0.201E-02    0.625E-02
RMM:   9    -0.116290436629E+04   -0.22688E-03   -0.23847E-04  8041   0.204E-02    0.444E-02
RMM:  10    -0.116290450625E+04   -0.13996E-03   -0.13227E-04  7522   0.160E-02    0.399E-02
RMM:  11    -0.116290461889E+04   -0.11264E-03   -0.90243E-05  7357   0.128E-02    0.389E-02
RMM:  12    -0.116290478264E+04   -0.16375E-03   -0.11663E-04  7410   0.148E-02    0.389E-02
RMM:  13    -0.116290525035E+04   -0.46771E-03   -0.98007E-04  8976   0.403E-02    0.347E-02
RMM:  14    -0.116290556313E+04   -0.31278E-03   -0.69026E-04  8473   0.315E-02    0.374E-02
RMM:  15    -0.116290571862E+04   -0.15549E-03   -0.26464E-04  7725   0.189E-02    0.337E-02
RMM:  16    -0.116290593076E+04   -0.21215E-03   -0.45343E-04  8220   0.259E-02    0.304E-02
RMM:  17    -0.116290614949E+04   -0.21873E-03   -0.20712E-03  9549   0.580E-02    0.341E-02
RMM:  18    -0.116290634299E+04   -0.19349E-03   -0.37705E-04  8000   0.216E-02    0.284E-02
RMM:  19    -0.116290639990E+04   -0.56909E-04   -0.47664E-04  8324   0.271E-02
  11 F= -.11629064E+04 E0= -.11629060E+04  d E =-.460609E-01  mag=     8.0000
       N       E                     dE             d eps       ncg     rms          rms(c)
DAV:   1    -0.116290033385E+04    0.60091E-02   -0.70788E+00 12784   0.304E+00    0.663E-01
RMM:   2    -0.116291694254E+04   -0.16609E-01   -0.18710E-01 12322   0.568E-01    0.534E-01
RMM:   3    -0.116291733267E+04   -0.39013E-03   -0.12975E-02 12580   0.230E-01    0.354E-01
RMM:   4    -0.116291698651E+04    0.34616E-03   -0.27288E-03 15604   0.667E-02    0.264E-01
RMM:   5    -0.116291665914E+04    0.32737E-03   -0.12985E-03 12577   0.376E-02    0.138E-01
RMM:   6    -0.116291665245E+04    0.66880E-05   -0.30317E-04  9518   0.224E-02    0.483E-02
RMM:   7    -0.116291665864E+04   -0.61859E-05   -0.75427E-05  7349   0.141E-02    0.325E-02
RMM:   8    -0.116291666336E+04   -0.47194E-05   -0.38457E-05  7181   0.105E-02
  12 F= -.11629167E+04 E0= -.11629166E+04  d E =-.563243E-01  mag=     8.0000
       N       E                     dE             d eps       ncg     rms          rms(c)
DAV:   1    -0.116288308836E+04    0.33570E-01   -0.20417E+01 12672   0.506E+00    0.133E+00
RMM:   2    -0.116294160825E+04   -0.58520E-01   -0.56059E-01 12316   0.984E-01    0.102E+00
RMM:   3    -0.116294456278E+04   -0.29545E-02   -0.42333E-02 13097   0.382E-01    0.754E-01
RMM:   4    -0.116294351156E+04    0.10512E-02   -0.67050E-03 16946   0.107E-01    0.484E-01
RMM:   5    -0.116294256581E+04    0.94575E-03   -0.52965E-03 13793   0.742E-02    0.217E-01
RMM:   6    -0.116294273384E+04   -0.16803E-03   -0.75048E-04 11250   0.413E-02    0.106E-01
RMM:   7    -0.116294273335E+04    0.48781E-06   -0.25806E-04  8835   0.179E-02    0.444E-02
RMM:   8    -0.116294273263E+04    0.71438E-06   -0.11137E-04  7569   0.142E-02
  13 F= -.11629427E+04 E0= -.11629427E+04  d E =-.260693E-01  mag=     8.0000
       N       E                     dE             d eps       ncg     rms          rms(c)
DAV:   1    -0.116294180926E+04    0.92409E-03   -0.58612E-01 13760   0.859E-01    0.231E-01
RMM:   2    -0.116294352884E+04   -0.17196E-02   -0.16605E-02 12351   0.169E-01    0.189E-01
RMM:   3    -0.116294359699E+04   -0.68153E-04   -0.13121E-03 11745   0.652E-02    0.135E-01
RMM:   4    -0.116294356229E+04    0.34705E-04   -0.18204E-04  7867   0.198E-02    0.837E-02
RMM:   5    -0.116294353726E+04    0.25028E-04   -0.16149E-04  7553   0.172E-02    0.524E-02
RMM:   6    -0.116294354740E+04   -0.10140E-04   -0.47448E-05  7058   0.110E-02    0.285E-02
RMM:   7    -0.116294354908E+04   -0.16868E-05   -0.20332E-05  6857   0.770E-03    0.132E-02
RMM:   8    -0.116294355086E+04   -0.17732E-05   -0.12671E-05  6697   0.566E-03
  14 F= -.11629436E+04 E0= -.11629436E+04  d E =-.268875E-01  mag=     8.0000
       N       E                     dE             d eps       ncg     rms          rms(c)
DAV:   1    -0.116295065052E+04   -0.71014E-02   -0.27464E+00 12808   0.195E+00    0.544E-01
RMM:   2    -0.116295606068E+04   -0.54102E-02   -0.78850E-02 12311   0.368E-01    0.493E-01
RMM:   3    -0.116295584000E+04    0.22068E-03   -0.42594E-03 12433   0.135E-01    0.315E-01
RMM:   4    -0.116295536548E+04    0.47452E-03   -0.21328E-03 12492   0.506E-02    0.183E-01
RMM:   5    -0.116295521698E+04    0.14850E-03   -0.49820E-04 10591   0.321E-02    0.944E-02
RMM:   6    -0.116295522398E+04   -0.70006E-05   -0.10325E-04  7490   0.145E-02    0.396E-02
RMM:   7    -0.116295522720E+04   -0.32212E-05   -0.51612E-05  7191   0.123E-02    0.319E-02
RMM:   8    -0.116295522923E+04   -0.20318E-05   -0.28299E-05  7088   0.874E-03
  15 F= -.11629552E+04 E0= -.11629552E+04  d E =-.116784E-01  mag=     8.0000
       N       E                     dE             d eps       ncg     rms          rms(c)
DAV:   1    -0.116295540370E+04   -0.17650E-03   -0.14766E-01 13480   0.454E-01    0.126E-01
RMM:   2    -0.116295570408E+04   -0.30038E-03   -0.43527E-03 12327   0.858E-02    0.114E-01
RMM:   3    -0.116295568665E+04    0.17426E-04   -0.20068E-04  8161   0.327E-02    0.752E-02
RMM:   4    -0.116295566690E+04    0.19750E-04   -0.10988E-04  7276   0.147E-02    0.681E-02
RMM:   5    -0.116295565887E+04    0.80337E-05   -0.50048E-05  7040   0.126E-02    0.273E-02
RMM:   6    -0.116295565924E+04   -0.36779E-06   -0.25656E-05  6880   0.706E-03    0.152E-02
RMM:   7    -0.116295566028E+04   -0.10435E-05   -0.11227E-05  6591   0.633E-03    0.104E-02
RMM:   8    -0.116295566103E+04   -0.75191E-06   -0.71621E-06  6023   0.350E-03
  16 F= -.11629557E+04 E0= -.11629557E+04  d E =-.121102E-01  mag=     8.0000
       N       E                     dE             d eps       ncg     rms          rms(c)
DAV:   1    -0.116295780098E+04   -0.21407E-02   -0.30729E+00 12752   0.208E+00    0.449E-01
RMM:   2    -0.116296459391E+04   -0.67929E-02   -0.79311E-02 12319   0.364E-01    0.331E-01
RMM:   3    -0.116296456236E+04    0.31556E-04   -0.42718E-03 12203   0.145E-01    0.214E-01
RMM:   4    -0.116296439978E+04    0.16258E-03   -0.14648E-03 14142   0.438E-02    0.132E-01
RMM:   5    -0.116296435143E+04    0.48353E-04   -0.35086E-04  9463   0.240E-02    0.628E-02
RMM:   6    -0.116296435529E+04   -0.38648E-05   -0.98918E-05  7266   0.166E-02    0.306E-02
RMM:   7    -0.116296435963E+04   -0.43368E-05   -0.51238E-05  7068   0.118E-02    0.202E-02
RMM:   8    -0.116296436244E+04   -0.28094E-05   -0.29635E-05  6955   0.823E-03
  17 F= -.11629644E+04 E0= -.11629644E+04  d E =-.870141E-02  mag=     8.0000
       N       E                     dE             d eps       ncg     rms          rms(c)
DAV:   1    -0.116296079314E+04    0.35665E-02   -0.30393E+00 12712   0.207E+00    0.446E-01
RMM:   2    -0.116296753384E+04   -0.67407E-02   -0.78681E-02 12327   0.364E-01    0.329E-01
RMM:   3    -0.116296751826E+04    0.15585E-04   -0.43805E-03 12244   0.148E-01    0.213E-01
RMM:   4    -0.116296736523E+04    0.15303E-03   -0.15212E-03 14579   0.446E-02    0.129E-01
RMM:   5    -0.116296731948E+04    0.45749E-04   -0.39185E-04  9871   0.241E-02    0.672E-02
RMM:   6    -0.116296732203E+04   -0.25487E-05   -0.10742E-04  7314   0.167E-02    0.318E-02
RMM:   7    -0.116296732647E+04   -0.44390E-05   -0.52851E-05  7103   0.121E-02    0.201E-02
RMM:   8    -0.116296732980E+04   -0.33340E-05   -0.32585E-05  7004   0.863E-03
  18 F= -.11629673E+04 E0= -.11629673E+04  d E =-.116688E-01  mag=     8.0000
       N       E                     dE             d eps       ncg     rms          rms(c)
DAV:   1    -0.116296587079E+04    0.14557E-02   -0.30909E+00 12680   0.206E+00    0.465E-01
RMM:   2    -0.116297278251E+04   -0.69117E-02   -0.79549E-02 12308   0.365E-01    0.359E-01
RMM:   3    -0.116297278611E+04   -0.36007E-05   -0.44416E-03 12182   0.146E-01    0.225E-01
RMM:   4    -0.116297255649E+04    0.22962E-03   -0.16434E-03 13784   0.454E-02    0.133E-01
RMM:   5    -0.116297251584E+04    0.40651E-04   -0.35696E-04  9637   0.255E-02    0.712E-02
RMM:   6    -0.116297252316E+04   -0.73184E-05   -0.10090E-04  7274   0.163E-02    0.301E-02
RMM:   7    -0.116297252884E+04   -0.56865E-05   -0.56782E-05  7106   0.119E-02    0.221E-02
RMM:   8    -0.116297253196E+04   -0.31130E-05   -0.30315E-05  6980   0.875E-03
  19 F= -.11629725E+04 E0= -.11629725E+04  d E =-.520216E-02  mag=     8.0000
       N       E                     dE             d eps       ncg     rms          rms(c)
DAV:   1    -0.116297236108E+04    0.16776E-03   -0.16305E-01 13280   0.473E-01    0.107E-01
RMM:   2    -0.116297274177E+04   -0.38069E-03   -0.43465E-03 12350   0.865E-02    0.842E-02
RMM:   3    -0.116297274057E+04    0.11953E-05   -0.22801E-04  7909   0.353E-02    0.534E-02
RMM:   4    -0.116297273341E+04    0.71632E-05   -0.84088E-05  7070   0.127E-02    0.460E-02
RMM:   5    -0.116297273176E+04    0.16512E-05   -0.38342E-05  6957   0.112E-02    0.243E-02
RMM:   6    -0.116297273381E+04   -0.20558E-05   -0.20361E-05  6818   0.654E-03    0.951E-03
RMM:   7    -0.116297273512E+04   -0.13037E-05   -0.10144E-05  6682   0.599E-03    0.774E-03
RMM:   8    -0.116297273624E+04   -0.11197E-05   -0.70195E-06  5953   0.352E-03
  20 F= -.11629727E+04 E0= -.11629727E+04  d E =-.540644E-02  mag=     8.0000
       N       E                     dE             d eps       ncg     rms          rms(c)
DAV:   1    -0.116297049031E+04    0.22448E-02   -0.24872E+00 12672   0.181E+00    0.393E-01
RMM:   2    -0.116297615910E+04   -0.56688E-02   -0.61561E-02 12315   0.322E-01    0.290E-01
RMM:   3    -0.116297625880E+04   -0.99704E-04   -0.35410E-03 12110   0.129E-01    0.179E-01
RMM:   4    -0.116297611128E+04    0.14753E-03   -0.10703E-03 12868   0.373E-02    0.120E-01
RMM:   5    -0.116297606109E+04    0.50184E-04   -0.25720E-04  8671   0.229E-02    0.812E-02
RMM:   6    -0.116297606503E+04   -0.39400E-05   -0.10657E-04  7285   0.163E-02    0.319E-02
RMM:   7    -0.116297606975E+04   -0.47143E-05   -0.44586E-05  7043   0.122E-02    0.208E-02
RMM:   8    -0.116297607281E+04   -0.30645E-05   -0.25354E-05  6814   0.805E-03
  21 F= -.11629761E+04 E0= -.11629761E+04  d E =-.333657E-02  mag=     8.0000
       N       E                     dE             d eps       ncg     rms          rms(c)
DAV:   1    -0.116297571299E+04    0.35676E-03   -0.23829E-01 12488   0.562E-01    0.122E-01
RMM:   2    -0.116297627935E+04   -0.56636E-03   -0.61112E-03 12375   0.102E-01    0.926E-02
RMM:   3    -0.116297628939E+04   -0.10039E-04   -0.34526E-04  8711   0.405E-02    0.584E-02
RMM:   4    -0.116297628091E+04    0.84801E-05   -0.93450E-05  7077   0.137E-02    0.521E-02
RMM:   5    -0.116297627747E+04    0.34332E-05   -0.43047E-05  6956   0.116E-02    0.311E-02
RMM:   6    -0.116297627980E+04   -0.23264E-05   -0.28352E-05  6773   0.751E-03    0.120E-02
RMM:   7    -0.116297628191E+04   -0.21073E-05   -0.11971E-05  6676   0.648E-03    0.910E-03
RMM:   8    -0.116297628339E+04   -0.14814E-05   -0.75275E-06  5923   0.376E-03
  22 F= -.11629763E+04 E0= -.11629763E+04  d E =-.354715E-02  mag=     8.0000
       N       E                     dE             d eps       ncg     rms          rms(c)
DAV:   1    -0.116297338403E+04    0.28979E-02   -0.23653E+00 12576   0.177E+00    0.381E-01
RMM:   2    -0.116297892312E+04   -0.55391E-02   -0.57676E-02 12316   0.311E-01    0.271E-01
RMM:   3    -0.116297907587E+04   -0.15276E-03   -0.33923E-03 12163   0.126E-01    0.166E-01
RMM:   4    -0.116297895299E+04    0.12289E-03   -0.98365E-04 12806   0.359E-02    0.103E-01
RMM:   5    -0.116297892618E+04    0.26808E-04   -0.21219E-04  8200   0.212E-02    0.671E-02
RMM:   6    -0.116297893431E+04   -0.81305E-05   -0.71924E-05  7142   0.141E-02    0.204E-02
RMM:   7    -0.116297893919E+04   -0.48846E-05   -0.36040E-05  7015   0.102E-02    0.159E-02
RMM:   8    -0.116297894206E+04   -0.28647E-05   -0.21984E-05  6834   0.791E-03
  23 F= -.11629789E+04 E0= -.11629789E+04  d E =-.265867E-02  mag=     8.0000
       N       E                     dE             d eps       ncg     rms          rms(c)
DAV:   1    -0.116297848849E+04    0.45070E-03   -0.26613E-01 12680   0.593E-01    0.128E-01
RMM:   2    -0.116297913022E+04   -0.64173E-03   -0.66775E-03 12368   0.107E-01    0.922E-02
RMM:   3    -0.116297914683E+04   -0.16615E-04   -0.38752E-04  8982   0.430E-02    0.568E-02
RMM:   4    -0.116297913546E+04    0.11375E-04   -0.10406E-04  7114   0.138E-02    0.422E-02
RMM:   5    -0.116297913517E+04    0.28757E-06   -0.40388E-05  6968   0.110E-02    0.340E-02
RMM:   6    -0.116297913710E+04   -0.19307E-05   -0.23032E-05  6743   0.747E-03    0.120E-02
RMM:   7    -0.116297913869E+04   -0.15875E-05   -0.11192E-05  6688   0.585E-03    0.903E-03
RMM:   8    -0.116297913983E+04   -0.11404E-05   -0.70607E-06  5934   0.410E-03
  24 F= -.11629791E+04 E0= -.11629791E+04  d E =-.285644E-02  mag=     8.0000
       N       E                     dE             d eps       ncg     rms          rms(c)
DAV:   1    -0.116297649595E+04    0.26427E-02   -0.18470E+00 12720   0.156E+00    0.362E-01
RMM:   2    -0.116298084758E+04   -0.43516E-02   -0.44414E-02 12307   0.273E-01    0.251E-01
RMM:   3    -0.116298098637E+04   -0.13879E-03   -0.26467E-03 12091   0.112E-01    0.150E-01
RMM:   4    -0.116298090199E+04    0.84384E-04   -0.79339E-04 12275   0.332E-02    0.107E-01
RMM:   5    -0.116298086994E+04    0.32042E-04   -0.18336E-04  7706   0.200E-02    0.679E-02
RMM:   6    -0.116298087431E+04   -0.43644E-05   -0.75141E-05  7170   0.149E-02    0.219E-02
RMM:   7    -0.116298087808E+04   -0.37749E-05   -0.33001E-05  7006   0.971E-03    0.160E-02
RMM:   8    -0.116298088034E+04   -0.22530E-05   -0.19840E-05  6763   0.771E-03
  25 F= -.11629809E+04 E0= -.11629809E+04  d E =-.174051E-02  mag=     8.0000
       N       E                     dE             d eps       ncg     rms          rms(c)
DAV:   1    -0.116298083910E+04    0.38987E-04   -0.25662E-02 13312   0.185E-01    0.436E-02
RMM:   2    -0.116298090599E+04   -0.66891E-04   -0.67606E-04 10880   0.346E-02    0.331E-02
RMM:   3    -0.116298090887E+04   -0.28790E-05   -0.42133E-05  6910   0.141E-02    0.196E-02
RMM:   4    -0.116298090956E+04   -0.69328E-06   -0.16540E-05  6590   0.621E-03    0.168E-02
RMM:   5    -0.116298090990E+04   -0.34200E-06   -0.87706E-06  6364   0.503E-03    0.113E-02
RMM:   6    -0.116298091081E+04   -0.90864E-06   -0.58335E-06  5550   0.371E-03    0.433E-03
RMM:   7    -0.116298091142E+04   -0.60888E-06   -0.30028E-06  4745   0.314E-03    0.333E-03
RMM:   8    -0.116298091183E+04   -0.41537E-06   -0.17018E-06  3517   0.250E-03
  26 F= -.11629809E+04 E0= -.11629809E+04  d E =-.177200E-02  mag=     8.0000
       N       E                     dE             d eps       ncg     rms          rms(c)
DAV:   1    -0.116297988867E+04    0.10228E-02   -0.91873E-01 12704   0.112E+00    0.217E-01
RMM:   2    -0.116298185414E+04   -0.19655E-02   -0.22627E-02 12299   0.194E-01    0.158E-01
RMM:   3    -0.116298186492E+04   -0.10782E-04   -0.13272E-03 11910   0.805E-02    0.102E-01
RMM:   4    -0.116298181424E+04    0.50685E-04   -0.38369E-04  9169   0.235E-02    0.673E-02
RMM:   5    -0.116298179809E+04    0.16148E-04   -0.94341E-05  7260   0.165E-02    0.399E-02
RMM:   6    -0.116298180082E+04   -0.27312E-05   -0.41005E-05  7034   0.116E-02    0.171E-02
RMM:   7    -0.116298180315E+04   -0.23274E-05   -0.20218E-05  6825   0.748E-03    0.117E-02
RMM:   8    -0.116298180463E+04   -0.14775E-05   -0.11595E-05  6682   0.615E-03
  27 F= -.11629818E+04 E0= -.11629818E+04  d E =-.892792E-03  mag=     8.0000
       N       E                     dE             d eps       ncg     rms          rms(c)
DAV:   1    -0.116298180459E+04   -0.14383E-05   -0.15033E-03 12680   0.459E-02    0.990E-03
RMM:   2    -0.116298180887E+04   -0.42828E-05   -0.45676E-05  6678   0.103E-02    0.998E-03
RMM:   3    -0.116298180997E+04   -0.11052E-05   -0.86106E-06  6106   0.577E-03    0.556E-03
RMM:   4    -0.116298181048E+04   -0.50031E-06   -0.37648E-06  5103   0.313E-03    0.491E-03
RMM:   5    -0.116298181086E+04   -0.38267E-06   -0.19226E-06  4362   0.297E-03    0.352E-03
RMM:   6    -0.116298181134E+04   -0.48077E-06   -0.13172E-06  3329   0.220E-03    0.296E-03
RMM:   7    -0.116298181158E+04   -0.23773E-06   -0.74187E-07  2823   0.219E-03    0.218E-03
RMM:   8    -0.116298181186E+04   -0.28849E-06   -0.53394E-07  2184   0.200E-03
  28 F= -.11629818E+04 E0= -.11629818E+04  d E =-.900030E-03  mag=     8.0000
       N       E                     dE             d eps       ncg     rms          rms(c)
DAV:   1    -0.116298112302E+04    0.68855E-03   -0.54117E-01 12600   0.851E-01    0.183E-01
RMM:   2    -0.116298235280E+04   -0.12298E-02   -0.13225E-02 12315   0.148E-01    0.133E-01
RMM:   3    -0.116298236952E+04   -0.16723E-04   -0.73014E-04 10971   0.596E-02    0.813E-02
RMM:   4    -0.116298233122E+04    0.38300E-04   -0.20646E-04  7775   0.174E-02    0.471E-02
RMM:   5    -0.116298232592E+04    0.52946E-05   -0.52000E-05  7015   0.120E-02    0.332E-02
RMM:   6    -0.116298232796E+04   -0.20321E-05   -0.23290E-05  6816   0.870E-03    0.109E-02
RMM:   7    -0.116298232938E+04   -0.14245E-05   -0.12396E-05  6665   0.573E-03    0.924E-03
RMM:   8    -0.116298233017E+04   -0.78668E-06   -0.75436E-06  6508   0.488E-03
  29 F= -.11629823E+04 E0= -.11629823E+04  d E =-.518302E-03  mag=     8.0000
