       N       E                     dE             d eps       ncg     rms          rms(c)
DAV:   1    -0.116402369631E+04   -0.11640E+04   -0.11875E-05  8040   0.134E-02    0.296E-02
RMM:   2    -0.116402369750E+04   -0.11909E-05   -0.28693E-05  6316   0.751E-03    0.672E-02
RMM:   3    -0.116402369400E+04    0.34991E-05   -0.79842E-06  5407   0.467E-03    0.101E-02
RMM:   4    -0.116402369372E+04    0.28698E-06   -0.20941E-06  3469   0.238E-03    0.474E-03
RMM:   5    -0.116402369375E+04   -0.32553E-07   -0.10499E-06  2995   0.231E-03    0.239E-03
RMM:   6    -0.116402369379E+04   -0.38781E-07   -0.48945E-07  2148   0.192E-03    0.168E-03
RMM:   7    -0.116402369379E+04   -0.12369E-08   -0.38374E-07  2045   0.200E-03    0.425E-04
RMM:   8    -0.116402369379E+04   -0.17317E-08   -0.78043E-08  1282   0.183E-03
   1 F= -.11640237E+04 E0= -.11640237E+04  d E =-.116402E+04  mag=     6.0000
       N       E                     dE             d eps       ncg     rms          rms(c)
DAV:   1    -0.116402357405E+04    0.11974E-03   -0.18666E-01 12480   0.497E-01    0.157E-01
RMM:   2    -0.116402367970E+04   -0.10564E-03   -0.64016E-03 12256   0.104E-01    0.154E-01
RMM:   3    -0.116402359631E+04    0.83390E-04   -0.26939E-04  8880   0.333E-02    0.979E-02
RMM:   4    -0.116402349789E+04    0.98414E-04   -0.28522E-04  9365   0.199E-02    0.646E-02
RMM:   5    -0.116402347693E+04    0.20959E-04   -0.59748E-05  7209   0.124E-02    0.406E-02
RMM:   6    -0.116402347560E+04    0.13300E-05   -0.27998E-05  6920   0.748E-03    0.190E-02
RMM:   7    -0.116402347638E+04   -0.78144E-06   -0.98511E-06  6403   0.549E-03    0.141E-02
RMM:   8    -0.116402347674E+04   -0.35328E-06   -0.57013E-06  5258   0.326E-03
   2 F= -.11640235E+04 E0= -.11640235E+04  d E =0.217052E-03  mag=     6.0000
       N       E                     dE             d eps       ncg     rms          rms(c)
DAV:   1    -0.116402434220E+04   -0.86582E-03   -0.50250E-02 12464   0.254E-01    0.854E-02
RMM:   2    -0.116402429417E+04    0.48031E-04   -0.19361E-03 12016   0.563E-02    0.893E-02
RMM:   3    -0.116402425561E+04    0.38563E-04   -0.70717E-05  7192   0.163E-02    0.590E-02
RMM:   4    -0.116402421335E+04    0.42264E-04   -0.89870E-05  7086   0.116E-02    0.372E-02
RMM:   5    -0.116402420533E+04    0.80144E-05   -0.32225E-05  6799   0.913E-03    0.314E-02
RMM:   6    -0.116402420506E+04    0.27061E-06   -0.14786E-05  5917   0.540E-03    0.126E-02
RMM:   7    -0.116402420560E+04   -0.53555E-06   -0.52449E-06  5009   0.410E-03    0.106E-02
RMM:   8    -0.116402420579E+04   -0.19259E-06   -0.28447E-06  4585   0.256E-03
   3 F= -.11640242E+04 E0= -.11640242E+04  d E =-.729052E-03  mag=     6.0000
