       N       E                     dE             d eps       ncg     rms          rms(c)
DAV:   1    -0.116514989329E+04   -0.11651E+04   -0.51537E-06  7784   0.448E-03    0.839E-03
RMM:   2    -0.116514989304E+04    0.24315E-06   -0.38719E-06  4692   0.259E-03    0.918E-03
RMM:   3    -0.116514989229E+04    0.75760E-06   -0.43242E-07  2580   0.187E-03    0.168E-03
RMM:   4    -0.116514989228E+04    0.86584E-08   -0.19093E-08  1190   0.179E-03    0.147E-03
RMM:   5    -0.116514989227E+04    0.11831E-07   -0.70471E-08  1003   0.182E-03    0.640E-04
RMM:   6    -0.116514989226E+04    0.48167E-08   -0.79345E-08   864   0.184E-03    0.153E-04
RMM:   7    -0.116514989226E+04   -0.23283E-09   -0.56838E-09   605   0.181E-03    0.999E-05
RMM:   8    -0.116514989226E+04   -0.33469E-09   -0.47111E-09   518   0.181E-03
   1 F= -.11651499E+04 E0= -.11651445E+04  d E =-.116515E+04  mag=     2.1761
       N       E                     dE             d eps       ncg     rms          rms(c)
DAV:   1    -0.116514993574E+04   -0.43476E-04   -0.77498E-02 12192   0.319E-01    0.868E-02
RMM:   2    -0.116515005014E+04   -0.11440E-03   -0.25492E-03 12142   0.624E-02    0.829E-02
RMM:   3    -0.116515001097E+04    0.39172E-04   -0.81045E-05  7231   0.134E-02    0.556E-02
RMM:   4    -0.116514998104E+04    0.29931E-04   -0.10046E-04  7107   0.107E-02    0.244E-02
RMM:   5    -0.116514997424E+04    0.67950E-05   -0.18295E-05  6357   0.488E-03    0.113E-02
RMM:   6    -0.116514997409E+04    0.15210E-06   -0.47056E-06  5039   0.260E-03    0.804E-03
RMM:   7    -0.116514997411E+04   -0.23487E-07   -0.12608E-06  3592   0.201E-03    0.502E-03
RMM:   8    -0.116514997411E+04    0.39436E-08   -0.12583E-07  2765   0.182E-03
   2 F= -.11651500E+04 E0= -.11651446E+04  d E =-.818472E-04  mag=     2.1759
       N       E                     dE             d eps       ncg     rms          rms(c)
DAV:   1    -0.116515023931E+04   -0.26520E-03   -0.14292E-02 12208   0.134E-01    0.426E-02
RMM:   2    -0.116515024126E+04   -0.19490E-05   -0.52092E-04 11203   0.273E-02    0.393E-02
RMM:   3    -0.116515022799E+04    0.13271E-04   -0.20569E-05  6282   0.635E-03    0.258E-02
RMM:   4    -0.116515021788E+04    0.10108E-04   -0.34742E-05  6105   0.613E-03    0.110E-02
RMM:   5    -0.116515021617E+04    0.17145E-05   -0.44422E-06  4572   0.262E-03    0.749E-03
RMM:   6    -0.116515021591E+04    0.25114E-06   -0.14123E-07  2249   0.177E-03    0.474E-03
RMM:   7    -0.116515021594E+04   -0.30428E-07   -0.60771E-07  1815   0.191E-03    0.197E-03
RMM:   8    -0.116515021593E+04    0.19543E-07   -0.58835E-08  1089   0.184E-03
   3 F= -.11651502E+04 E0= -.11651449E+04  d E =-.241817E-03  mag=     2.1750
