       N       E                     dE             d eps       ncg     rms          rms(c)
DAV:   1     0.117998595705E+05    0.11800E+05   -0.41833E+05 12352   0.130E+03
DAV:   2     0.617937035480E+03   -0.11182E+05   -0.99885E+04 12296   0.372E+02
DAV:   3    -0.136893655861E+04   -0.19869E+04   -0.19158E+04 13216   0.163E+02
DAV:   4    -0.149845375089E+04   -0.12952E+03   -0.12727E+03 16344   0.431E+01
DAV:   5    -0.150626566048E+04   -0.78119E+01   -0.77815E+01 22056   0.912E+00    0.182E+02
RMM:   6    -0.116731620769E+04    0.33895E+03   -0.15822E+03 12463   0.341E+01    0.966E+01
RMM:   7    -0.115478536114E+04    0.12531E+02   -0.64728E+01 12792   0.978E+00    0.595E+01
RMM:   8    -0.116819257953E+04   -0.13407E+02   -0.44954E+01 12625   0.690E+00    0.332E+01
RMM:   9    -0.116834950771E+04   -0.15693E+00   -0.81380E+00 12651   0.298E+00    0.169E+01
RMM:  10    -0.116273795475E+04    0.56116E+01   -0.50283E+00 12697   0.204E+00    0.125E+01
RMM:  11    -0.116068147906E+04    0.20565E+01   -0.10383E+01 12437   0.246E+00    0.716E+00
RMM:  12    -0.116124725713E+04   -0.56578E+00   -0.11116E+00 14032   0.795E-01    0.469E+00
RMM:  13    -0.116192717536E+04   -0.67992E+00   -0.49535E-01 13054   0.624E-01    0.369E+00
RMM:  14    -0.116228296896E+04   -0.35579E+00   -0.36263E-01 12534   0.546E-01    0.212E+00
RMM:  15    -0.116245579320E+04   -0.17282E+00   -0.22437E-01 12582   0.436E-01    0.120E+00
RMM:  16    -0.116251239296E+04   -0.56600E-01   -0.77382E-02 13570   0.244E-01    0.872E-01
RMM:  17    -0.116252020733E+04   -0.78144E-02   -0.26654E-02 13151   0.145E-01    0.485E-01
RMM:  18    -0.116252569422E+04   -0.54869E-02   -0.98372E-03 13851   0.829E-02    0.386E-01
RMM:  19    -0.116252824308E+04   -0.25489E-02   -0.53722E-03 12904   0.640E-02    0.276E-01
RMM:  20    -0.116252885787E+04   -0.61479E-03   -0.33143E-03 12737   0.504E-02    0.116E-01
RMM:  21    -0.116252909859E+04   -0.24072E-03   -0.83649E-04 11936   0.235E-02    0.713E-02
RMM:  22    -0.116252925940E+04   -0.16081E-03   -0.30554E-04  9678   0.156E-02    0.391E-02
RMM:  23    -0.116252935186E+04   -0.92466E-04   -0.14280E-04  8457   0.109E-02
   1 F= -.11625294E+04 E0= -.11625278E+04  d E =-.116253E+04  mag=     3.9815
       N       E                     dE             d eps       ncg     rms          rms(c)
DAV:   1    -0.114122148462E+04    0.21308E+02   -0.16150E+03 12688   0.378E+01    0.303E+01
RMM:   2    -0.116696962375E+04   -0.25748E+02   -0.28461E+02 14257   0.105E+01    0.188E+01
RMM:   3    -0.116112185740E+04    0.58478E+01   -0.16572E+01 13609   0.303E+00    0.146E+01
RMM:   4    -0.115820132788E+04    0.29205E+01   -0.53816E+00 12490   0.159E+00    0.913E+00
RMM:   5    -0.115947663185E+04   -0.12753E+01   -0.43817E+00 12544   0.976E-01    0.134E+01
RMM:   6    -0.115831975566E+04    0.11569E+01   -0.13136E+00 12286   0.726E-01    0.474E+00
RMM:   7    -0.115828593546E+04    0.33820E-01   -0.10513E+00 12329   0.586E-01    0.272E+00
RMM:   8    -0.115821395989E+04    0.71976E-01   -0.16939E-01 12315   0.305E-01    0.250E+00
RMM:   9    -0.115810465041E+04    0.10931E+00   -0.54634E-02 12576   0.164E-01    0.153E+00
RMM:  10    -0.115806151046E+04    0.43140E-01   -0.33467E-02 12480   0.125E-01    0.858E-01
RMM:  11    -0.115805798892E+04    0.35215E-02   -0.98931E-03 13291   0.727E-02    0.745E-01
RMM:  12    -0.115805161913E+04    0.63698E-02   -0.15186E-02 12174   0.946E-02    0.263E-01
RMM:  13    -0.115805253002E+04   -0.91090E-03   -0.51455E-03 13110   0.471E-02    0.210E-01
RMM:  14    -0.115805326101E+04   -0.73099E-03   -0.97557E-04 11569   0.242E-02    0.217E-01
RMM:  15    -0.115805358377E+04   -0.32275E-03   -0.92058E-04 10813   0.268E-02    0.161E-01
RMM:  16    -0.115805348951E+04    0.94253E-04   -0.66830E-04 10478   0.206E-02
   2 F= -.11580535E+04 E0= -.11580486E+04  d E =0.447586E+01  mag=     3.9934
       N       E                     dE             d eps       ncg     rms          rms(c)
DAV:   1    -0.115978241215E+04   -0.17288E+01   -0.69478E+02 12816   0.203E+01    0.196E+01
RMM:   2    -0.116361913070E+04   -0.38367E+01   -0.39822E+01 12288   0.572E+00    0.204E+01
RMM:   3    -0.116321125900E+04    0.40787E+00   -0.28485E+00 12385   0.154E+00    0.137E+01
RMM:   4    -0.116256221275E+04    0.64905E+00   -0.18065E+00 12325   0.106E+00    0.594E+00
RMM:   5    -0.116222033094E+04    0.34188E+00   -0.66540E-01 12276   0.755E-01    0.248E+00
RMM:   6    -0.116210265812E+04    0.11767E+00   -0.13698E-01 12324   0.336E-01    0.185E+00
RMM:   7    -0.116206383629E+04    0.38822E-01   -0.37615E-02 13555   0.148E-01    0.120E+00
RMM:   8    -0.116207997166E+04   -0.16135E-01   -0.34897E-02 12314   0.146E-01    0.236E+00
RMM:   9    -0.116208189463E+04   -0.19230E-02   -0.40152E-03 14605   0.456E-02    0.230E+00
RMM:  10    -0.116209771085E+04   -0.15816E-01   -0.27876E-03 11505   0.452E-02    0.280E+00
RMM:  11    -0.116208228812E+04    0.15423E-01   -0.24514E-03 11225   0.437E-02    0.194E+00
RMM:  12    -0.116207975167E+04    0.25365E-02   -0.20234E-02 12080   0.127E-01    0.102E+00
RMM:  13    -0.116207998290E+04   -0.23124E-03   -0.69494E-03 12029   0.742E-02    0.668E-01
RMM:  14    -0.116208429236E+04   -0.43095E-02   -0.10080E-03 11396   0.270E-02    0.102E+00
RMM:  15    -0.116207775227E+04    0.65401E-02   -0.10652E-03 10566   0.336E-02    0.401E-01
RMM:  16    -0.116207773579E+04    0.16476E-04   -0.50692E-04 10427   0.216E-02
   3 F= -.11620777E+04 E0= -.11620687E+04  d E =-.402425E+01  mag=     3.9163
       N       E                     dE             d eps       ncg     rms          rms(c)
DAV:   1    -0.116252397905E+04   -0.44623E+00   -0.27650E+02 12704   0.170E+01    0.563E+00
RMM:   2    -0.116350409652E+04   -0.98012E+00   -0.10486E+01 12288   0.323E+00    0.678E+00
RMM:   3    -0.116342306605E+04    0.81030E-01   -0.34218E-01 13141   0.615E-01    0.516E+00
RMM:   4    -0.116341648763E+04    0.65784E-02   -0.19273E-01 12241   0.383E-01    0.296E+00
RMM:   5    -0.116337473848E+04    0.41749E-01   -0.91768E-02 12211   0.271E-01    0.695E-01
RMM:   6    -0.116337150285E+04    0.32356E-02   -0.94309E-03 12577   0.840E-02    0.473E-01
RMM:   7    -0.116336994847E+04    0.15544E-02   -0.34008E-03 11823   0.448E-02    0.243E-01
RMM:   8    -0.116336982316E+04    0.12530E-03   -0.14955E-03 11148   0.341E-02    0.953E-02
RMM:   9    -0.116336990263E+04   -0.79464E-04   -0.38342E-04  9594   0.188E-02
   4 F= -.11633699E+04 E0= -.11633677E+04  d E =-.129217E+01  mag=     3.9880
       N       E                     dE             d eps       ncg     rms          rms(c)
DAV:   1    -0.116379221756E+04   -0.42239E+00   -0.71217E+01 12880   0.813E+00    0.266E+00
RMM:   2    -0.116395527322E+04   -0.16306E+00   -0.19997E+00 12290   0.149E+00    0.225E+00
RMM:   3    -0.116394087588E+04    0.14397E-01   -0.95006E-02 12690   0.312E-01    0.127E+00
RMM:   4    -0.116393254945E+04    0.83264E-02   -0.34138E-02 12168   0.165E-01    0.722E-01
RMM:   5    -0.116392917425E+04    0.33752E-02   -0.87108E-03 12189   0.870E-02    0.208E-01
RMM:   6    -0.116392928787E+04   -0.11362E-03   -0.13189E-03 12359   0.324E-02    0.156E-01
RMM:   7    -0.116392936733E+04   -0.79460E-04   -0.34388E-04  9962   0.163E-02    0.827E-02
RMM:   8    -0.116392944171E+04   -0.74382E-04   -0.18542E-04  8679   0.137E-02
   5 F= -.11639294E+04 E0= -.11639281E+04  d E =-.559539E+00  mag=     3.9917
       N       E                     dE             d eps       ncg     rms          rms(c)
DAV:   1    -0.116420394276E+04   -0.27458E+00   -0.44194E+01 12768   0.632E+00    0.220E+00
RMM:   2    -0.116430330371E+04   -0.99361E-01   -0.12137E+00 12290   0.113E+00    0.178E+00
RMM:   3    -0.116429521345E+04    0.80903E-02   -0.60536E-02 12774   0.240E-01    0.996E-01
RMM:   4    -0.116429047752E+04    0.47359E-02   -0.21582E-02 12202   0.127E-01    0.508E-01
RMM:   5    -0.116428871665E+04    0.17609E-02   -0.50227E-03 12313   0.618E-02    0.162E-01
RMM:   6    -0.116428876754E+04   -0.50881E-04   -0.74591E-04 11710   0.244E-02    0.107E-01
RMM:   7    -0.116428885354E+04   -0.86001E-04   -0.23928E-04  9110   0.143E-02    0.530E-02
RMM:   8    -0.116428891391E+04   -0.60372E-04   -0.10815E-04  8193   0.974E-03
   6 F= -.11642889E+04 E0= -.11642877E+04  d E =-.359472E+00  mag=     3.9946
       N       E                     dE             d eps       ncg     rms          rms(c)
DAV:   1    -0.116441323682E+04   -0.12438E+00   -0.32337E+01 12528   0.568E+00    0.200E+00
RMM:   2    -0.116449188287E+04   -0.78646E-01   -0.94227E-01 12290   0.105E+00    0.167E+00
RMM:   3    -0.116448571292E+04    0.61700E-02   -0.47924E-02 13094   0.222E-01    0.101E+00
RMM:   4    -0.116448237838E+04    0.33345E-02   -0.18628E-02 12808   0.121E-01    0.467E-01
RMM:   5    -0.116448114373E+04    0.12347E-02   -0.43936E-03 13019   0.562E-02    0.147E-01
RMM:   6    -0.116448116895E+04   -0.25225E-04   -0.66573E-04 11649   0.232E-02    0.103E-01
RMM:   7    -0.116448122997E+04   -0.61018E-04   -0.24978E-04  9148   0.137E-02    0.571E-02
RMM:   8    -0.116448128266E+04   -0.52696E-04   -0.13084E-04  8013   0.103E-02
   7 F= -.11644813E+04 E0= -.11644801E+04  d E =-.192369E+00  mag=     3.9943
       N       E                     dE             d eps       ncg     rms          rms(c)
DAV:   1    -0.116450337518E+04   -0.22145E-01   -0.15410E+01 12992   0.431E+00    0.125E+00
RMM:   2    -0.116454309728E+04   -0.39722E-01   -0.44530E-01 12290   0.793E-01    0.118E+00
RMM:   3    -0.116454078510E+04    0.23122E-02   -0.21483E-02 13392   0.170E-01    0.814E-01
RMM:   4    -0.116453978336E+04    0.10017E-02   -0.74531E-03 13187   0.810E-02    0.424E-01
RMM:   5    -0.116453940096E+04    0.38240E-03   -0.29238E-03 12643   0.488E-02    0.108E-01
RMM:   6    -0.116453937891E+04    0.22055E-04   -0.42919E-04 10445   0.200E-02    0.744E-02
RMM:   7    -0.116453939421E+04   -0.15306E-04   -0.11979E-04  8061   0.106E-02    0.524E-02
RMM:   8    -0.116453943905E+04   -0.44837E-04   -0.88746E-05  7555   0.952E-03
   8 F= -.11645394E+04 E0= -.11645384E+04  d E =-.581564E-01  mag=     3.9948
       N       E                     dE             d eps       ncg     rms          rms(c)
DAV:   1    -0.116454212971E+04   -0.27355E-02   -0.15082E+01 12848   0.445E+00    0.833E-01
RMM:   2    -0.116457716863E+04   -0.35039E-01   -0.38361E-01 12289   0.752E-01    0.673E-01
RMM:   3    -0.116457624692E+04    0.92171E-03   -0.16847E-02 13045   0.175E-01    0.431E-01
RMM:   4    -0.116457539605E+04    0.85087E-03   -0.42029E-03 14353   0.625E-02    0.259E-01
RMM:   5    -0.116457523025E+04    0.16580E-03   -0.19681E-03 13122   0.398E-02    0.935E-02
RMM:   6    -0.116457525077E+04   -0.20511E-04   -0.32021E-04  9959   0.174E-02    0.539E-02
RMM:   7    -0.116457526559E+04   -0.14823E-04   -0.99336E-05  7871   0.997E-03    0.396E-02
RMM:   8    -0.116457529928E+04   -0.33690E-04   -0.81384E-05  7480   0.920E-03
   9 F= -.11645753E+04 E0= -.11645743E+04  d E =-.358602E-01  mag=     3.9945
       N       E                     dE             d eps       ncg     rms          rms(c)
DAV:   1    -0.116457107553E+04    0.41901E-02   -0.91562E+00 12792   0.342E+00    0.717E-01
RMM:   2    -0.116459224331E+04   -0.21168E-01   -0.23890E-01 12295   0.587E-01    0.621E-01
RMM:   3    -0.116459144843E+04    0.79488E-03   -0.10816E-02 13260   0.135E-01    0.432E-01
RMM:   4    -0.116459079035E+04    0.65808E-03   -0.29825E-03 13190   0.519E-02    0.244E-01
RMM:   5    -0.116459063538E+04    0.15497E-03   -0.13589E-03 12138   0.329E-02    0.739E-02
RMM:   6    -0.116459062570E+04    0.96849E-05   -0.20447E-04  8657   0.146E-02    0.462E-02
RMM:   7    -0.116459063026E+04   -0.45633E-05   -0.74583E-05  7427   0.824E-03    0.305E-02
RMM:   8    -0.116459064213E+04   -0.11872E-04   -0.52946E-05  7180   0.782E-03
  10 F= -.11645906E+04 E0= -.11645897E+04  d E =-.153429E-01  mag=     3.9940
       N       E                     dE             d eps       ncg     rms          rms(c)
DAV:   1    -0.116459774348E+04   -0.71132E-02   -0.50460E+00 12968   0.253E+00    0.483E-01
RMM:   2    -0.116460923728E+04   -0.11494E-01   -0.12728E-01 12293   0.425E-01    0.406E-01
RMM:   3    -0.116460890607E+04    0.33121E-03   -0.54102E-03 12670   0.989E-02    0.280E-01
RMM:   4    -0.116460862850E+04    0.27757E-03   -0.15940E-03 12435   0.375E-02    0.165E-01
RMM:   5    -0.116460850854E+04    0.11996E-03   -0.63699E-04 11487   0.223E-02    0.424E-02
RMM:   6    -0.116460850964E+04   -0.10949E-05   -0.84063E-05  7601   0.996E-03    0.273E-02
RMM:   7    -0.116460851245E+04   -0.28074E-05   -0.38211E-05  7129   0.622E-03    0.176E-02
RMM:   8    -0.116460851680E+04   -0.43538E-05   -0.28973E-05  6948   0.572E-03
  11 F= -.11646085E+04 E0= -.11646075E+04  d E =-.178747E-01  mag=     3.9940
       N       E                     dE             d eps       ncg     rms          rms(c)
DAV:   1    -0.116460372109E+04    0.47914E-02   -0.10291E+01 12712   0.362E+00    0.623E-01
RMM:   2    -0.116462691490E+04   -0.23194E-01   -0.25249E-01 12296   0.595E-01    0.499E-01
RMM:   3    -0.116462637888E+04    0.53602E-03   -0.10464E-02 12442   0.142E-01    0.344E-01
RMM:   4    -0.116462585854E+04    0.52035E-03   -0.29330E-03 13714   0.502E-02    0.205E-01
RMM:   5    -0.116462566345E+04    0.19508E-03   -0.11213E-03 12438   0.284E-02    0.539E-02
RMM:   6    -0.116462566765E+04   -0.42007E-05   -0.15138E-04  8088   0.121E-02    0.328E-02
RMM:   7    -0.116462566915E+04   -0.14958E-05   -0.54785E-05  7323   0.748E-03    0.210E-02
RMM:   8    -0.116462567304E+04   -0.38904E-05   -0.54027E-05  7213   0.710E-03
  12 F= -.11646257E+04 E0= -.11646247E+04  d E =-.171562E-01  mag=     3.9937
       N       E                     dE             d eps       ncg     rms          rms(c)
DAV:   1    -0.116462249124E+04    0.31779E-02   -0.69272E+00 12736   0.298E+00    0.478E-01
RMM:   2    -0.116463792932E+04   -0.15438E-01   -0.16599E-01 12300   0.480E-01    0.315E-01
RMM:   3    -0.116463758165E+04    0.34768E-03   -0.68985E-03 12373   0.117E-01    0.205E-01
RMM:   4    -0.116463720416E+04    0.37749E-03   -0.18845E-03 13293   0.407E-02    0.925E-02
RMM:   5    -0.116463718845E+04    0.15712E-04   -0.42971E-04 11707   0.186E-02    0.383E-02
RMM:   6    -0.116463719565E+04   -0.72085E-05   -0.92238E-05  7594   0.965E-03    0.221E-02
RMM:   7    -0.116463719960E+04   -0.39409E-05   -0.38825E-05  7184   0.675E-03    0.149E-02
RMM:   8    -0.116463720420E+04   -0.46014E-05   -0.43108E-05  7075   0.621E-03
  13 F= -.11646372E+04 E0= -.11646363E+04  d E =-.115312E-01  mag=     3.9936
       N       E                     dE             d eps       ncg     rms          rms(c)
DAV:   1    -0.116463283337E+04    0.43662E-02   -0.65448E+00 12856   0.290E+00    0.466E-01
RMM:   2    -0.116464744308E+04   -0.14610E-01   -0.15699E-01 12302   0.468E-01    0.303E-01
RMM:   3    -0.116464712371E+04    0.31936E-03   -0.64727E-03 12324   0.114E-01    0.197E-01
RMM:   4    -0.116464677842E+04    0.34530E-03   -0.18178E-03 13278   0.398E-02    0.846E-02
RMM:   5    -0.116464676342E+04    0.14999E-04   -0.37593E-04 11213   0.175E-02    0.344E-02
RMM:   6    -0.116464676997E+04   -0.65562E-05   -0.76244E-05  7489   0.948E-03    0.197E-02
RMM:   7    -0.116464677426E+04   -0.42828E-05   -0.49301E-05  7254   0.690E-03    0.137E-02
RMM:   8    -0.116464677708E+04   -0.28228E-05   -0.35658E-05  6981   0.601E-03
  14 F= -.11646468E+04 E0= -.11646458E+04  d E =-.957288E-02  mag=     3.9936
       N       E                     dE             d eps       ncg     rms          rms(c)
DAV:   1    -0.116464234500E+04    0.44293E-02   -0.54632E+00 12864   0.265E+00    0.431E-01
RMM:   2    -0.116465467717E+04   -0.12332E-01   -0.13226E-01 12301   0.431E-01    0.288E-01
RMM:   3    -0.116465441454E+04    0.26264E-03   -0.55421E-03 12450   0.105E-01    0.190E-01
RMM:   4    -0.116465414994E+04    0.26460E-03   -0.14186E-03 13151   0.356E-02    0.997E-02
RMM:   5    -0.116465411373E+04    0.36211E-04   -0.42379E-04 11635   0.184E-02    0.350E-02
RMM:   6    -0.116465411970E+04   -0.59775E-05   -0.83017E-05  7438   0.936E-03    0.204E-02
RMM:   7    -0.116465412276E+04   -0.30557E-05   -0.39443E-05  7117   0.663E-03    0.134E-02
RMM:   8    -0.116465412561E+04   -0.28536E-05   -0.34420E-05  6894   0.571E-03
  15 F= -.11646541E+04 E0= -.11646532E+04  d E =-.734853E-02  mag=     3.9933
       N       E                     dE             d eps       ncg     rms          rms(c)
DAV:   1    -0.116465135784E+04    0.27649E-02   -0.34818E+00 12864   0.213E+00    0.340E-01
RMM:   2    -0.116465917044E+04   -0.78126E-02   -0.83712E-02 12301   0.343E-01    0.215E-01
RMM:   3    -0.116465901147E+04    0.15897E-03   -0.34576E-03 12262   0.841E-02    0.140E-01
RMM:   4    -0.116465883309E+04    0.17838E-03   -0.96944E-04 12574   0.294E-02    0.551E-02
RMM:   5    -0.116465883440E+04   -0.13082E-05   -0.18625E-04  8056   0.129E-02    0.235E-02
RMM:   6    -0.116465883759E+04   -0.31902E-05   -0.39371E-05  7137   0.794E-03    0.137E-02
RMM:   7    -0.116465884134E+04   -0.37443E-05   -0.41165E-05  6948   0.611E-03    0.102E-02
RMM:   8    -0.116465884307E+04   -0.17336E-05   -0.21320E-05  6594   0.498E-03
  16 F= -.11646588E+04 E0= -.11646579E+04  d E =-.471746E-02  mag=     3.9933
       N       E                     dE             d eps       ncg     rms          rms(c)
DAV:   1    -0.116465644826E+04    0.23931E-02   -0.27782E+00 12784   0.190E+00    0.304E-01
RMM:   2    -0.116466268931E+04   -0.62410E-02   -0.67026E-02 12301   0.308E-01    0.192E-01
RMM:   3    -0.116466256344E+04    0.12586E-03   -0.27660E-03 12249   0.752E-02    0.125E-01
RMM:   4    -0.116466242370E+04    0.13975E-03   -0.79161E-04 12410   0.265E-02    0.499E-02
RMM:   5    -0.116466242066E+04    0.30315E-05   -0.14162E-04  7577   0.116E-02    0.208E-02
RMM:   6    -0.116466242415E+04   -0.34857E-05   -0.37303E-05  7079   0.734E-03    0.122E-02
RMM:   7    -0.116466242720E+04   -0.30511E-05   -0.33384E-05  6820   0.566E-03    0.892E-03
RMM:   8    -0.116466242858E+04   -0.13734E-05   -0.16895E-05  6516   0.460E-03
  17 F= -.11646624E+04 E0= -.11646615E+04  d E =-.358550E-02  mag=     3.9933
       N       E                     dE             d eps       ncg     rms          rms(c)
DAV:   1    -0.116466141514E+04    0.10121E-02   -0.15946E+00 12976   0.144E+00    0.233E-01
RMM:   2    -0.116466499750E+04   -0.35824E-02   -0.38526E-02 12293   0.233E-01    0.146E-01
RMM:   3    -0.116466492047E+04    0.77033E-04   -0.15883E-03 12052   0.574E-02    0.943E-02
RMM:   4    -0.116466483808E+04    0.82384E-04   -0.44457E-04 10567   0.202E-02    0.364E-02
RMM:   5    -0.116466483868E+04   -0.59640E-06   -0.79352E-05  7178   0.959E-03    0.155E-02
RMM:   6    -0.116466484238E+04   -0.37052E-05   -0.32851E-05  6949   0.605E-03    0.936E-03
RMM:   7    -0.116466484396E+04   -0.15734E-05   -0.18593E-05  6587   0.469E-03    0.674E-03
RMM:   8    -0.116466484508E+04   -0.11249E-05   -0.11754E-05  6148   0.365E-03
  18 F= -.11646648E+04 E0= -.11646639E+04  d E =-.241651E-02  mag=     3.9933
       N       E                     dE             d eps       ncg     rms          rms(c)
DAV:   1    -0.116466353588E+04    0.13081E-02   -0.15713E+00 12784   0.143E+00    0.228E-01
RMM:   2    -0.116466707039E+04   -0.35345E-02   -0.37806E-02 12293   0.231E-01    0.143E-01
RMM:   3    -0.116466699925E+04    0.71137E-04   -0.15476E-03 11963   0.567E-02    0.925E-02
RMM:   4    -0.116466692217E+04    0.77083E-04   -0.41283E-04 10243   0.195E-02    0.401E-02
RMM:   5    -0.116466692049E+04    0.16798E-05   -0.81554E-05  7159   0.976E-03    0.157E-02
RMM:   6    -0.116466692436E+04   -0.38657E-05   -0.32144E-05  6951   0.602E-03    0.941E-03
RMM:   7    -0.116466692581E+04   -0.14591E-05   -0.17306E-05  6591   0.462E-03    0.678E-03
RMM:   8    -0.116466692686E+04   -0.10434E-05   -0.10933E-05  6201   0.357E-03
  19 F= -.11646669E+04 E0= -.11646660E+04  d E =-.208178E-02  mag=     3.9933
       N       E                     dE             d eps       ncg     rms          rms(c)
DAV:   1    -0.116466566956E+04    0.12563E-02   -0.13588E+00 12800   0.133E+00    0.211E-01
RMM:   2    -0.116466872313E+04   -0.30536E-02   -0.32645E-02 12285   0.214E-01    0.131E-01
RMM:   3    -0.116466866217E+04    0.60962E-04   -0.13303E-03 11769   0.526E-02    0.845E-02
RMM:   4    -0.116466859512E+04    0.67048E-04   -0.36913E-04  9504   0.185E-02    0.325E-02
RMM:   5    -0.116466859543E+04   -0.31530E-06   -0.65457E-05  7126   0.880E-03    0.135E-02
RMM:   6    -0.116466859872E+04   -0.32887E-05   -0.27685E-05  6892   0.554E-03    0.860E-03
RMM:   7    -0.116466860005E+04   -0.13318E-05   -0.15133E-05  6527   0.434E-03    0.598E-03
RMM:   8    -0.116466860099E+04   -0.93963E-06   -0.96496E-06  6169   0.337E-03
  20 F= -.11646686E+04 E0= -.11646677E+04  d E =-.167414E-02  mag=     3.9932
