       N       E                     dE             d eps       ncg     rms          rms(c)
DAV:   1     0.119050802805E+05    0.11905E+05   -0.42101E+05 12352   0.131E+03
DAV:   2     0.647195673975E+03   -0.11258E+05   -0.10050E+05 12320   0.375E+02
DAV:   3    -0.136203298946E+04   -0.20092E+04   -0.19367E+04 13216   0.165E+02
DAV:   4    -0.149506740438E+04   -0.13303E+03   -0.13070E+03 16272   0.444E+01
DAV:   5    -0.150360589974E+04   -0.85385E+01   -0.84985E+01 22232   0.101E+01    0.183E+02
RMM:   6    -0.116490451325E+04    0.33870E+03   -0.16017E+03 12509   0.348E+01    0.111E+02
RMM:   7    -0.114887841929E+04    0.16026E+02   -0.67049E+01 12807   0.107E+01    0.707E+01
RMM:   8    -0.115183572937E+04   -0.29573E+01   -0.23135E+01 13522   0.569E+00    0.451E+01
RMM:   9    -0.115614632534E+04   -0.43106E+01   -0.10502E+01 13177   0.387E+00    0.114E+01
RMM:  10    -0.115706671461E+04   -0.92039E+00   -0.24992E+00 13589   0.178E+00    0.957E+00
RMM:  11    -0.115850446222E+04   -0.14377E+01   -0.17341E+00 14657   0.115E+00    0.587E+00
RMM:  12    -0.115925291220E+04   -0.74845E+00   -0.82629E-01 13491   0.952E-01    0.293E+00
RMM:  13    -0.115945267621E+04   -0.19976E+00   -0.29288E-01 15070   0.516E-01    0.188E+00
RMM:  14    -0.115951045743E+04   -0.57781E-01   -0.80299E-02 15867   0.275E-01    0.124E+00
RMM:  15    -0.115956565607E+04   -0.55199E-01   -0.77648E-02 13915   0.246E-01    0.622E-01
RMM:  16    -0.115957410366E+04   -0.84476E-02   -0.18783E-02 15311   0.145E-01    0.351E-01
RMM:  17    -0.115957602850E+04   -0.19248E-02   -0.58715E-03 17111   0.621E-02    0.224E-01
RMM:  18    -0.115957800826E+04   -0.19798E-02   -0.34842E-03 14547   0.519E-02    0.151E-01
RMM:  19    -0.115957907932E+04   -0.10711E-02   -0.13733E-03 11731   0.342E-02    0.117E-01
RMM:  20    -0.115958003907E+04   -0.95975E-03   -0.92327E-04 10801   0.271E-02    0.114E-01
RMM:  21    -0.115958107730E+04   -0.10382E-02   -0.71627E-04 10219   0.252E-02    0.115E-01
RMM:  22    -0.115958102557E+04    0.51727E-04   -0.28821E-04  9306   0.132E-02
   1 F= -.11595810E+04 E0= -.11595788E+04  d E =-.115958E+04  mag=     6.0091
       N       E                     dE             d eps       ncg     rms          rms(c)
DAV:   1    -0.113159072464E+04    0.27990E+02   -0.17815E+03 12888   0.358E+01    0.518E+01
RMM:   2    -0.115648186750E+04   -0.24891E+02   -0.26144E+02 13187   0.111E+01    0.297E+01
RMM:   3    -0.115190361122E+04    0.45783E+01   -0.16726E+01 12771   0.429E+00    0.171E+01
RMM:   4    -0.115321390506E+04   -0.13103E+01   -0.64438E+00 13695   0.172E+00    0.127E+01
RMM:   5    -0.115190291288E+04    0.13110E+01   -0.32867E+00 13232   0.112E+00    0.663E+00
RMM:   6    -0.115180441349E+04    0.98499E-01   -0.47245E-01 14346   0.580E-01    0.460E+00
RMM:   7    -0.115190435679E+04   -0.99943E-01   -0.38495E-01 13013   0.391E-01    0.450E+00
RMM:   8    -0.115179999435E+04    0.10436E+00   -0.73944E-02 14144   0.236E-01    0.301E+00
RMM:   9    -0.115175076092E+04    0.49233E-01   -0.66610E-02 14164   0.184E-01    0.192E+00
RMM:  10    -0.115177177611E+04   -0.21015E-01   -0.93935E-03 15705   0.788E-02    0.236E+00
RMM:  11    -0.115174006280E+04    0.31713E-01   -0.13613E-02 13840   0.791E-02    0.188E+00
RMM:  12    -0.115177355180E+04   -0.33489E-01   -0.15879E-02 12903   0.978E-02    0.319E+00
RMM:  13    -0.115173913842E+04    0.34413E-01   -0.67833E-03 12554   0.913E-02    0.786E-01
RMM:  14    -0.115175114637E+04   -0.12008E-01   -0.56299E-03 11857   0.864E-02    0.823E-01
RMM:  15    -0.115176455159E+04   -0.13405E-01   -0.60357E-03 11548   0.915E-02    0.619E-01
RMM:  16    -0.115176778596E+04   -0.32344E-02   -0.19001E-03 11408   0.422E-02    0.479E-01
RMM:  17    -0.115177300134E+04   -0.52154E-02   -0.11725E-03 10644   0.364E-02    0.533E-01
RMM:  18    -0.115178682242E+04   -0.13821E-01   -0.61140E-03 11468   0.904E-02    0.463E-01
RMM:  19    -0.115179724461E+04   -0.10422E-01   -0.59955E-03 11195   0.840E-02    0.411E-01
RMM:  20    -0.115180554921E+04   -0.83046E-02   -0.43600E-03 10936   0.645E-02    0.440E-01
RMM:  21    -0.115181033188E+04   -0.47827E-02   -0.20229E-03  9858   0.404E-02    0.411E-01
RMM:  22    -0.115179270994E+04    0.17622E-01   -0.64462E-03 10971   0.101E-01    0.474E-01
RMM:  23    -0.115178905444E+04    0.36555E-02   -0.14719E-03  9038   0.417E-02    0.485E-01
RMM:  24    -0.115174192648E+04    0.47128E-01   -0.46303E-02 11713   0.257E-01    0.486E-01
RMM:  25    -0.115171924470E+04    0.22682E-01   -0.25470E-02 11536   0.174E-01    0.568E-01
RMM:  26    -0.115175836117E+04   -0.39116E-01   -0.17855E-02 11643   0.184E-01    0.721E-01
RMM:  27    -0.115178485295E+04   -0.26492E-01   -0.38731E-02 12001   0.240E-01    0.485E-01
RMM:  28    -0.115181816894E+04   -0.33316E-01   -0.74111E-02 11895   0.317E-01    0.537E-01
RMM:  29    -0.115183659665E+04   -0.18428E-01   -0.97879E-02 12066   0.341E-01    0.688E-01
RMM:  30    -0.115184574980E+04   -0.91532E-02   -0.20152E-02 12556   0.112E-01    0.638E-01
RMM:  31    -0.115185000159E+04   -0.42518E-02   -0.16536E-03  9537   0.314E-02    0.601E-01
RMM:  32    -0.115185243280E+04   -0.24312E-02   -0.12527E-02 10982   0.119E-01    0.716E-01
RMM:  33    -0.115186510046E+04   -0.12668E-01   -0.62113E-03 10765   0.769E-02    0.665E-01
RMM:  34    -0.115187758835E+04   -0.12488E-01   -0.62517E-03 10678   0.845E-02    0.643E-01
RMM:  35    -0.115188484359E+04   -0.72552E-02   -0.19016E-03  9899   0.406E-02    0.600E-01
RMM:  36    -0.115189275568E+04   -0.79121E-02   -0.25444E-03  9915   0.539E-02    0.579E-01
RMM:  37    -0.115190986884E+04   -0.17113E-01   -0.50899E-03 10677   0.883E-02    0.498E-01
RMM:  38    -0.115191681213E+04   -0.69433E-02   -0.25745E-03 10028   0.542E-02    0.439E-01
RMM:  39    -0.115191684507E+04   -0.32946E-04   -0.46017E-04  8189   0.168E-02
   2 F= -.11519168E+04 E0= -.11519046E+04  d E =0.766418E+01  mag=     3.3938
       N       E                     dE             d eps       ncg     rms          rms(c)
DAV:   1    -0.115003724979E+04    0.18796E+01   -0.14625E+03 12480   0.317E+01    0.364E+01
RMM:   2    -0.115956460929E+04   -0.95274E+01   -0.11341E+02 12290   0.869E+00    0.329E+01
RMM:   3    -0.115824039160E+04    0.13242E+01   -0.68991E+00 13015   0.254E+00    0.225E+01
RMM:   4    -0.116314152269E+04   -0.49011E+01   -0.14568E+01 12744   0.290E+00    0.251E+01
RMM:   5    -0.115895874865E+04    0.41828E+01   -0.71020E+00 13438   0.200E+00    0.842E+00
RMM:   6    -0.115761459237E+04    0.13442E+01   -0.13049E+00 13660   0.105E+00    0.483E+00
RMM:   7    -0.115739972971E+04    0.21486E+00   -0.51688E-01 13490   0.496E-01    0.279E+00
RMM:   8    -0.115746935112E+04   -0.69621E-01   -0.50077E-02 13801   0.207E-01    0.291E+00
RMM:   9    -0.115745121401E+04    0.18137E-01   -0.99035E-03 16826   0.663E-02    0.286E+00
RMM:  10    -0.115745620370E+04   -0.49897E-02   -0.39177E-03 15152   0.414E-02    0.297E+00
RMM:  11    -0.115748438054E+04   -0.28177E-01   -0.85243E-03 12227   0.752E-02    0.248E+00
RMM:  12    -0.115759447727E+04   -0.11010E+00   -0.85327E-02 12144   0.241E-01    0.177E+00
RMM:  13    -0.115761397392E+04   -0.19497E-01   -0.32631E-02 12255   0.168E-01    0.170E+00
RMM:  14    -0.115761285076E+04    0.11232E-02   -0.90914E-03 12384   0.812E-02    0.173E+00
RMM:  15    -0.115759512953E+04    0.17721E-01   -0.20828E-02 12071   0.129E-01    0.182E+00
RMM:  16    -0.115756610415E+04    0.29025E-01   -0.32645E-02 12092   0.171E-01    0.184E+00
RMM:  17    -0.115754080555E+04    0.25299E-01   -0.30022E-02 12161   0.171E-01    0.212E+00
RMM:  18    -0.115722986149E+04    0.31094E+00   -0.17163E-01 12162   0.379E-01    0.352E+00
RMM:  19    -0.115704523898E+04    0.18462E+00   -0.68576E-02 12325   0.227E-01    0.646E+00
RMM:  20    -0.115744202993E+04   -0.39679E+00   -0.21643E-01 12098   0.355E-01    0.308E+00
RMM:  21    -0.115743697304E+04    0.50569E-02   -0.47431E-03 10738   0.982E-02    0.316E+00
RMM:  22    -0.115745913273E+04   -0.22160E-01   -0.25120E-03  9919   0.451E-02    0.305E+00
RMM:  23    -0.115740772542E+04    0.51407E-01   -0.17520E-02 11457   0.126E-01    0.464E+00
RMM:  24    -0.115746845498E+04   -0.60730E-01   -0.38241E-02 12043   0.181E-01    0.280E+00
RMM:  25    -0.115743635012E+04    0.32105E-01   -0.39171E-02 12337   0.198E-01    0.225E+00
RMM:  26    -0.115747079945E+04   -0.34449E-01   -0.44786E-02 12469   0.166E-01    0.184E+00
RMM:  27    -0.115747850555E+04   -0.77061E-02   -0.48856E-03 11346   0.718E-02    0.180E+00
RMM:  28    -0.115748645589E+04   -0.79503E-02   -0.66462E-03 12051   0.588E-02    0.203E+00
RMM:  29    -0.115747459552E+04    0.11860E-01   -0.41722E-03 11042   0.519E-02    0.208E+00
RMM:  30    -0.115746246284E+04    0.12133E-01   -0.67670E-03 12090   0.740E-02    0.188E+00
RMM:  31    -0.115746531075E+04   -0.28479E-02   -0.30555E-02 12227   0.155E-01    0.251E+00
RMM:  32    -0.115746354184E+04    0.17689E-02   -0.21438E-02 12528   0.136E-01    0.200E+00
RMM:  33    -0.115746515339E+04   -0.16115E-02   -0.25542E-03 13173   0.395E-02    0.202E+00
RMM:  34    -0.115746624507E+04   -0.10917E-02   -0.65378E-03 11352   0.609E-02    0.256E+00
RMM:  35    -0.115747666541E+04   -0.10420E-01   -0.68844E-03 11881   0.627E-02    0.299E+00
RMM:  36    -0.115747655489E+04    0.11053E-03   -0.38193E-04  8935   0.240E-02    0.300E+00
RMM:  37    -0.115747791888E+04   -0.13640E-02   -0.22692E-04  8268   0.119E-02    0.304E+00
RMM:  38    -0.115747739439E+04    0.52449E-03   -0.52425E-05  7503   0.102E-02    0.302E+00
RMM:  39    -0.115747607530E+04    0.13191E-02   -0.87093E-05  7628   0.941E-03    0.300E+00
RMM:  40    -0.115746679144E+04    0.92839E-02   -0.33479E-03 11252   0.485E-02
   3 F= -.11574668E+04 E0= -.11574547E+04  d E =-.554995E+01  mag=     2.9774
       N       E                     dE             d eps       ncg     rms          rms(c)
DAV:   1    -0.115818958859E+04   -0.71351E+00   -0.42249E+02 12576   0.209E+01    0.810E+00
RMM:   2    -0.115993955610E+04   -0.17500E+01   -0.18557E+01 12316   0.451E+00    0.732E+00
RMM:   3    -0.115994349745E+04   -0.39413E-02   -0.76161E-01 13451   0.116E+00    0.511E+00
RMM:   4    -0.115992357031E+04    0.19927E-01   -0.35116E-01 13168   0.580E-01    0.279E+00
RMM:   5    -0.115990660232E+04    0.16968E-01   -0.10381E-01 12728   0.344E-01    0.682E-01
RMM:   6    -0.115990619224E+04    0.41007E-03   -0.18350E-02 14630   0.135E-01    0.425E-01
RMM:   7    -0.115990856520E+04   -0.23730E-02   -0.77311E-03 15803   0.708E-02    0.278E-01
RMM:   8    -0.115991037071E+04   -0.18055E-02   -0.19798E-03 12886   0.439E-02    0.191E-01
RMM:   9    -0.115991304156E+04   -0.26708E-02   -0.21475E-03 11421   0.500E-02    0.124E-01
RMM:  10    -0.115991409979E+04   -0.10582E-02   -0.93870E-04 10029   0.305E-02    0.105E-01
RMM:  11    -0.115991546468E+04   -0.13649E-02   -0.10946E-03  9739   0.328E-02    0.819E-02
RMM:  12    -0.115991706603E+04   -0.16013E-02   -0.21955E-03  9825   0.469E-02    0.598E-02
RMM:  13    -0.115991781890E+04   -0.75287E-03   -0.13364E-03  9264   0.309E-02    0.517E-02
RMM:  14    -0.115991846756E+04   -0.64866E-03   -0.94911E-04  8806   0.265E-02    0.429E-02
RMM:  15    -0.115991904797E+04   -0.58041E-03   -0.99158E-04  8637   0.262E-02    0.366E-02
RMM:  16    -0.115991947762E+04   -0.42965E-03   -0.82292E-04  8375   0.224E-02    0.312E-02
RMM:  17    -0.115991991949E+04   -0.44188E-03   -0.10820E-03  8459   0.268E-02    0.247E-02
RMM:  18    -0.115992020846E+04   -0.28897E-03   -0.93456E-04  8156   0.235E-02    0.204E-02
RMM:  19    -0.115992036758E+04   -0.15912E-03   -0.51192E-04  7644   0.167E-02    0.165E-02
RMM:  20    -0.115992047083E+04   -0.10325E-03   -0.34011E-04  7301   0.137E-02    0.141E-02
RMM:  21    -0.115992054319E+04   -0.72356E-04   -0.29773E-04  7038   0.130E-02
   4 F= -.11599205E+04 E0= -.11599189E+04  d E =-.245375E+01  mag=     2.0177
       N       E                     dE             d eps       ncg     rms          rms(c)
DAV:   1    -0.116051532424E+04   -0.59485E+00   -0.79047E+01 12896   0.878E+00    0.289E+00
RMM:   2    -0.116067766601E+04   -0.16234E+00   -0.23568E+00 12308   0.168E+00    0.255E+00
RMM:   3    -0.116065664422E+04    0.21022E-01   -0.12574E-01 13024   0.502E-01    0.163E+00
RMM:   4    -0.116063954647E+04    0.17098E-01   -0.57857E-02 13072   0.233E-01    0.916E-01
RMM:   5    -0.116063574187E+04    0.38046E-02   -0.15124E-02 12619   0.138E-01    0.317E-01
RMM:   6    -0.116063590344E+04   -0.16157E-03   -0.34536E-03 13978   0.513E-02    0.227E-01
RMM:   7    -0.116063602357E+04   -0.12013E-03   -0.95764E-04 12336   0.255E-02    0.114E-01
RMM:   8    -0.116063614415E+04   -0.12058E-03   -0.32814E-04  9123   0.205E-02    0.385E-02
RMM:   9    -0.116063618388E+04   -0.39729E-04   -0.12017E-04  8309   0.126E-02
   5 F= -.11606362E+04 E0= -.11606352E+04  d E =-.715641E+00  mag=     2.0142
       N       E                     dE             d eps       ncg     rms          rms(c)
DAV:   1    -0.116111371458E+04   -0.47757E+00   -0.75358E+01 12736   0.795E+00    0.283E+00
RMM:   2    -0.116131019310E+04   -0.19648E+00   -0.21140E+00 12312   0.151E+00    0.243E+00
RMM:   3    -0.116130194672E+04    0.82464E-02   -0.12545E-01 12757   0.501E-01    0.142E+00
RMM:   4    -0.116129753827E+04    0.44084E-02   -0.47072E-02 13281   0.203E-01    0.768E-01
RMM:   5    -0.116129763661E+04   -0.98344E-04   -0.13252E-02 12832   0.117E-01    0.293E-01
RMM:   6    -0.116129846575E+04   -0.82914E-03   -0.28071E-03 13316   0.497E-02    0.208E-01
RMM:   7    -0.116129914645E+04   -0.68070E-03   -0.10989E-03 12088   0.278E-02    0.115E-01
RMM:   8    -0.116129966857E+04   -0.52212E-03   -0.77878E-04 10805   0.277E-02    0.481E-02
RMM:   9    -0.116129974139E+04   -0.72818E-04   -0.18583E-04  8475   0.138E-02
   6 F= -.11612997E+04 E0= -.11612986E+04  d E =-.663558E+00  mag=     2.0136
       N       E                     dE             d eps       ncg     rms          rms(c)
DAV:   1    -0.116161254399E+04   -0.31288E+00   -0.22436E+01 12904   0.431E+00    0.180E+00
RMM:   2    -0.116167260175E+04   -0.60058E-01   -0.55230E-01 12319   0.762E-01    0.132E+00
RMM:   3    -0.116167276765E+04   -0.16590E-03   -0.49840E-02 12868   0.268E-01    0.746E-01
RMM:   4    -0.116167199750E+04    0.77015E-03   -0.18528E-02 13623   0.120E-01    0.417E-01
RMM:   5    -0.116167207971E+04   -0.82215E-04   -0.47391E-03 12714   0.714E-02    0.189E-01
RMM:   6    -0.116167260374E+04   -0.52403E-03   -0.11412E-03 12389   0.320E-02    0.125E-01
RMM:   7    -0.116167286318E+04   -0.25943E-03   -0.43931E-04 10019   0.195E-02    0.738E-02
RMM:   8    -0.116167305035E+04   -0.18717E-03   -0.34830E-04  9506   0.182E-02    0.294E-02
RMM:   9    -0.116167307147E+04   -0.21125E-04   -0.89359E-05  8036   0.107E-02
   7 F= -.11616731E+04 E0= -.11616719E+04  d E =-.373330E+00  mag=     2.0131
       N       E                     dE             d eps       ncg     rms          rms(c)
DAV:   1    -0.116184578658E+04   -0.17274E+00   -0.92748E+00 13072   0.306E+00    0.116E+00
RMM:   2    -0.116187620745E+04   -0.30421E-01   -0.24770E-01 12309   0.546E-01    0.994E-01
RMM:   3    -0.116187485060E+04    0.13568E-02   -0.18608E-02 13115   0.170E-01    0.584E-01
RMM:   4    -0.116187480280E+04    0.47803E-04   -0.78991E-03 13088   0.826E-02    0.311E-01
RMM:   5    -0.116187479175E+04    0.11048E-04   -0.24296E-03 11881   0.535E-02    0.106E-01
RMM:   6    -0.116187494018E+04   -0.14843E-03   -0.38999E-04  9910   0.214E-02    0.743E-02
RMM:   7    -0.116187503060E+04   -0.90421E-04   -0.15309E-04  8446   0.135E-02    0.452E-02
RMM:   8    -0.116187509081E+04   -0.60205E-04   -0.10587E-04  8042   0.121E-02
   8 F= -.11618751E+04 E0= -.11618738E+04  d E =-.202019E+00  mag=     2.0132
       N       E                     dE             d eps       ncg     rms          rms(c)
DAV:   1    -0.116208706743E+04   -0.21204E+00   -0.33374E+01 12696   0.604E+00    0.214E+00
RMM:   2    -0.116219570420E+04   -0.10864E+00   -0.99744E-01 12300   0.115E+00    0.201E+00
RMM:   3    -0.116218866056E+04    0.70436E-02   -0.62151E-02 13735   0.337E-01    0.131E+00
RMM:   4    -0.116218704004E+04    0.16205E-02   -0.26632E-02 13323   0.158E-01    0.727E-01
RMM:   5    -0.116218451375E+04    0.25263E-02   -0.90880E-03 13446   0.995E-02    0.167E-01
RMM:   6    -0.116218460452E+04   -0.90768E-04   -0.97930E-04 12607   0.337E-02    0.121E-01
RMM:   7    -0.116218468705E+04   -0.82528E-04   -0.32763E-04 10135   0.171E-02    0.694E-02
RMM:   8    -0.116218474548E+04   -0.58433E-04   -0.19497E-04  9165   0.159E-02
   9 F= -.11621847E+04 E0= -.11621835E+04  d E =-.309655E+00  mag=     2.0127
       N       E                     dE             d eps       ncg     rms          rms(c)
DAV:   1    -0.116220945268E+04   -0.24766E-01   -0.58603E+01 12672   0.814E+00    0.294E+00
RMM:   2    -0.116239377391E+04   -0.18432E+00   -0.20319E+00 12315   0.163E+00    0.337E+00
RMM:   3    -0.116237918920E+04    0.14585E-01   -0.11373E-01 14223   0.473E-01    0.270E+00
RMM:   4    -0.116237350209E+04    0.56871E-02   -0.53641E-02 13482   0.224E-01    0.149E+00
RMM:   5    -0.116236470274E+04    0.87993E-02   -0.24980E-02 13112   0.157E-01    0.351E-01
RMM:   6    -0.116236384725E+04    0.85549E-03   -0.26621E-03 13217   0.594E-02    0.224E-01
RMM:   7    -0.116236371539E+04    0.13185E-03   -0.93163E-04 12744   0.263E-02    0.133E-01
RMM:   8    -0.116236367974E+04    0.35653E-04   -0.50742E-04 10566   0.223E-02
  10 F= -.11623637E+04 E0= -.11623625E+04  d E =-.178934E+00  mag=     2.0124
       N       E                     dE             d eps       ncg     rms          rms(c)
DAV:   1    -0.116237191266E+04   -0.81973E-02   -0.58172E+00 13224   0.279E+00    0.600E-01
RMM:   2    -0.116238599028E+04   -0.14078E-01   -0.16445E-01 12355   0.510E-01    0.443E-01
RMM:   3    -0.116238572243E+04    0.26785E-03   -0.78484E-03 12970   0.161E-01    0.293E-01
RMM:   4    -0.116238524711E+04    0.47532E-03   -0.26444E-03 13434   0.551E-02    0.166E-01
RMM:   5    -0.116238511094E+04    0.13617E-03   -0.71488E-04 11134   0.291E-02    0.417E-02
RMM:   6    -0.116238511790E+04   -0.69648E-05   -0.74457E-05  7681   0.133E-02    0.287E-02
RMM:   7    -0.116238513224E+04   -0.14336E-04   -0.50094E-05  7384   0.907E-03    0.175E-02
RMM:   8    -0.116238514550E+04   -0.13261E-04   -0.29824E-05  7194   0.797E-03
  11 F= -.11623851E+04 E0= -.11623838E+04  d E =-.214658E-01  mag=     2.0130
       N       E                     dE             d eps       ncg     rms          rms(c)
DAV:   1    -0.116234576735E+04    0.39365E-01   -0.10735E+01 12464   0.348E+00    0.141E+00
RMM:   2    -0.116237348373E+04   -0.27716E-01   -0.38198E-01 12297   0.720E-01    0.169E+00
RMM:   3    -0.116236877436E+04    0.47094E-02   -0.18277E-02 13584   0.194E-01    0.135E+00
RMM:   4    -0.116236855407E+04    0.22029E-03   -0.10327E-02 12731   0.994E-02    0.771E-01
RMM:   5    -0.116236533507E+04    0.32190E-02   -0.54675E-03 12321   0.718E-02    0.153E-01
RMM:   6    -0.116236520267E+04    0.13240E-03   -0.56740E-04 10286   0.284E-02    0.113E-01
RMM:   7    -0.116236516448E+04    0.38189E-04   -0.16087E-04  8223   0.132E-02    0.647E-02
RMM:   8    -0.116236516284E+04    0.16402E-05   -0.13595E-04  7906   0.135E-02
  12 F= -.11623652E+04 E0= -.11623639E+04  d E =0.199827E-01  mag=     2.0122
       N       E                     dE             d eps       ncg     rms          rms(c)
DAV:   1    -0.116236851012E+04   -0.33456E-02   -0.19660E+01 12672   0.481E+00    0.161E+00
RMM:   2    -0.116242499102E+04   -0.56481E-01   -0.63896E-01 12348   0.933E-01    0.185E+00
RMM:   3    -0.116242070296E+04    0.42881E-02   -0.33867E-02 13854   0.267E-01    0.149E+00
RMM:   4    -0.116241964430E+04    0.10587E-02   -0.13177E-02 13442   0.114E-01    0.854E-01
RMM:   5    -0.116241691758E+04    0.27267E-02   -0.79882E-03 12716   0.848E-02    0.193E-01
RMM:   6    -0.116241668922E+04    0.22836E-03   -0.68525E-04 10626   0.329E-02    0.121E-01
RMM:   7    -0.116241664293E+04    0.46295E-04   -0.25376E-04  8920   0.161E-02    0.699E-02
RMM:   8    -0.116241664701E+04   -0.40817E-05   -0.17638E-04  8170   0.151E-02
  13 F= -.11624166E+04 E0= -.11624154E+04  d E =-.514842E-01  mag=     2.0122
       N       E                     dE             d eps       ncg     rms          rms(c)
DAV:   1    -0.116241897944E+04   -0.23365E-02   -0.59833E+00 12768   0.282E+00    0.554E-01
RMM:   2    -0.116243223690E+04   -0.13257E-01   -0.14898E-01 12397   0.473E-01    0.372E-01
RMM:   3    -0.116243204790E+04    0.18900E-03   -0.75666E-03 12497   0.168E-01    0.239E-01
RMM:   4    -0.116243179116E+04    0.25674E-03   -0.25149E-03 14364   0.534E-02    0.153E-01
RMM:   5    -0.116243172106E+04    0.70105E-04   -0.60005E-04 11378   0.242E-02    0.420E-02
RMM:   6    -0.116243174159E+04   -0.20529E-04   -0.90868E-05  7577   0.144E-02    0.279E-02
RMM:   7    -0.116243176144E+04   -0.19855E-04   -0.58694E-05  7387   0.965E-03    0.248E-02
RMM:   8    -0.116243178082E+04   -0.19382E-04   -0.37023E-05  7207   0.892E-03
  14 F= -.11624318E+04 E0= -.11624305E+04  d E =-.151338E-01  mag=     2.0121
       N       E                     dE             d eps       ncg     rms          rms(c)
DAV:   1    -0.116243385671E+04   -0.20953E-02   -0.25509E+00 12768   0.184E+00    0.365E-01
RMM:   2    -0.116243965174E+04   -0.57950E-02   -0.66337E-02 12387   0.314E-01    0.292E-01
RMM:   3    -0.116243954168E+04    0.11006E-03   -0.31396E-03 12435   0.104E-01    0.197E-01
RMM:   4    -0.116243944735E+04    0.94324E-04   -0.10249E-03 12696   0.343E-02    0.135E-01
RMM:   5    -0.116243938283E+04    0.64525E-04   -0.38281E-04  9834   0.217E-02    0.290E-02
RMM:   6    -0.116243940107E+04   -0.18244E-04   -0.63453E-05  7348   0.131E-02    0.227E-02
RMM:   7    -0.116243941858E+04   -0.17508E-04   -0.40796E-05  7169   0.817E-03    0.202E-02
RMM:   8    -0.116243944176E+04   -0.23177E-04   -0.28913E-05  7005   0.828E-03
  15 F= -.11624394E+04 E0= -.11624381E+04  d E =-.766093E-02  mag=     2.0122
       N       E                     dE             d eps       ncg     rms          rms(c)
DAV:   1    -0.116243824151E+04    0.11771E-02   -0.38486E+00 12768   0.226E+00    0.414E-01
RMM:   2    -0.116244702249E+04   -0.87810E-02   -0.97259E-02 12373   0.380E-01    0.300E-01
RMM:   3    -0.116244693240E+04    0.90086E-04   -0.48498E-03 12453   0.132E-01    0.201E-01
RMM:   4    -0.116244682544E+04    0.10696E-03   -0.14100E-03 13601   0.411E-02    0.138E-01
RMM:   5    -0.116244676769E+04    0.57757E-04   -0.51697E-04 10783   0.234E-02    0.324E-02
RMM:   6    -0.116244679133E+04   -0.23641E-04   -0.70882E-05  7349   0.137E-02    0.245E-02
RMM:   7    -0.116244682204E+04   -0.30709E-04   -0.54651E-05  7227   0.861E-03    0.208E-02
RMM:   8    -0.116244685422E+04   -0.32182E-04   -0.36535E-05  7052   0.877E-03
  16 F= -.11624469E+04 E0= -.11624455E+04  d E =-.741246E-02  mag=     2.0121
       N       E                     dE             d eps       ncg     rms          rms(c)
DAV:   1    -0.116244396974E+04    0.28523E-02   -0.40635E+00 12640   0.233E+00    0.414E-01
RMM:   2    -0.116245325074E+04   -0.92810E-02   -0.10144E-01 12423   0.389E-01    0.271E-01
RMM:   3    -0.116245318531E+04    0.65427E-04   -0.49563E-03 12469   0.135E-01    0.181E-01
RMM:   4    -0.116245306863E+04    0.11669E-03   -0.14332E-03 13752   0.415E-02    0.114E-01
RMM:   5    -0.116245305898E+04    0.96456E-05   -0.43045E-04 10327   0.219E-02    0.345E-02
RMM:   6    -0.116245309471E+04   -0.35735E-04   -0.79910E-05  7347   0.138E-02    0.272E-02
RMM:   7    -0.116245313045E+04   -0.35735E-04   -0.58380E-05  7217   0.920E-03    0.253E-02
RMM:   8    -0.116245317258E+04   -0.42128E-04   -0.42531E-05  7028   0.927E-03
  17 F= -.11624532E+04 E0= -.11624518E+04  d E =-.631836E-02  mag=     2.0120
       N       E                     dE             d eps       ncg     rms          rms(c)
DAV:   1    -0.116245072166E+04    0.24088E-02   -0.31831E+00 12728   0.207E+00    0.373E-01
RMM:   2    -0.116245809899E+04   -0.73773E-02   -0.79304E-02 12574   0.345E-01    0.234E-01
RMM:   3    -0.116245807763E+04    0.21362E-04   -0.37834E-03 12602   0.117E-01    0.153E-01
RMM:   4    -0.116245798038E+04    0.97251E-04   -0.10081E-03 13159   0.363E-02    0.866E-02
RMM:   5    -0.116245802004E+04   -0.39663E-04   -0.27866E-04  8694   0.207E-02    0.333E-02
RMM:   6    -0.116245806243E+04   -0.42386E-04   -0.79792E-05  7286   0.133E-02    0.274E-02
RMM:   7    -0.116245809676E+04   -0.34330E-04   -0.53570E-05  7122   0.992E-03    0.272E-02
RMM:   8    -0.116245814741E+04   -0.50646E-04   -0.46677E-05  6957   0.949E-03
  18 F= -.11624581E+04 E0= -.11624568E+04  d E =-.497483E-02  mag=     2.0122
       N       E                     dE             d eps       ncg     rms          rms(c)
DAV:   1    -0.116245634881E+04    0.17480E-02   -0.23379E+00 12776   0.177E+00    0.315E-01
RMM:   2    -0.116246173749E+04   -0.53887E-02   -0.57670E-02 12570   0.293E-01    0.192E-01
RMM:   3    -0.116246173064E+04    0.68460E-05   -0.28067E-03 12528   0.101E-01    0.127E-01
RMM:   4    -0.116246167978E+04    0.50865E-04   -0.74255E-04 12423   0.313E-02    0.706E-02
RMM:   5    -0.116246173139E+04   -0.51614E-04   -0.19424E-04  7732   0.191E-02    0.314E-02
RMM:   6    -0.116246177519E+04   -0.43797E-04   -0.70721E-05  7193   0.116E-02    0.272E-02
RMM:   7    -0.116246181406E+04   -0.38877E-04   -0.47384E-05  7051   0.994E-03    0.264E-02
RMM:   8    -0.116246188981E+04   -0.75749E-04   -0.64377E-05  6959   0.975E-03
  19 F= -.11624619E+04 E0= -.11624605E+04  d E =-.374241E-02  mag=     2.0123
       N       E                     dE             d eps       ncg     rms          rms(c)
DAV:   1    -0.116246168019E+04    0.13388E-03   -0.99138E-01 13040   0.115E+00    0.205E-01
RMM:   2    -0.116246402417E+04   -0.23440E-02   -0.24602E-02 12724   0.192E-01    0.126E-01
RMM:   3    -0.116246403618E+04   -0.12011E-04   -0.11769E-03 11719   0.643E-02    0.846E-02
RMM:   4    -0.116246404415E+04   -0.79715E-05   -0.29369E-04  8397   0.214E-02    0.499E-02
RMM:   5    -0.116246410381E+04   -0.59653E-04   -0.11601E-04  7290   0.146E-02    0.273E-02
RMM:   6    -0.116246414250E+04   -0.38691E-04   -0.48232E-05  7030   0.971E-03    0.257E-02
RMM:   7    -0.116246418262E+04   -0.40119E-04   -0.35022E-05  6878   0.737E-03    0.251E-02
RMM:   8    -0.116246426006E+04   -0.77443E-04   -0.56618E-05  6843   0.875E-03
  20 F= -.11624643E+04 E0= -.11624629E+04  d E =-.237024E-02  mag=     2.0124
       N       E                     dE             d eps       ncg     rms          rms(c)
DAV:   1    -0.116246362825E+04    0.55437E-03   -0.12000E+00 12776   0.127E+00    0.226E-01
RMM:   2    -0.116246647088E+04   -0.28426E-02   -0.29631E-02 12737   0.211E-01    0.139E-01
RMM:   3    -0.116246648106E+04   -0.10177E-04   -0.13694E-03 12068   0.682E-02    0.920E-02
RMM:   4    -0.116246648069E+04    0.36556E-06   -0.33277E-04  8762   0.226E-02    0.533E-02
RMM:   5    -0.116246654466E+04   -0.63961E-04   -0.13070E-04  7333   0.155E-02    0.283E-02
RMM:   6    -0.116246658403E+04   -0.39374E-04   -0.49903E-05  7051   0.101E-02    0.263E-02
RMM:   7    -0.116246662575E+04   -0.41718E-04   -0.36836E-05  6905   0.778E-03    0.260E-02
RMM:   8    -0.116246670442E+04   -0.78667E-04   -0.56539E-05  6847   0.865E-03
  21 F= -.11624667E+04 E0= -.11624653E+04  d E =-.244436E-02  mag=     2.0124
       N       E                     dE             d eps       ncg     rms          rms(c)
DAV:   1    -0.116246656117E+04    0.64578E-04   -0.78156E-01 12768   0.102E+00    0.181E-01
RMM:   2    -0.116246843890E+04   -0.18777E-02   -0.19389E-02 12780   0.171E-01    0.113E-01
RMM:   3    -0.116246845633E+04   -0.17426E-04   -0.88190E-04 11135   0.545E-02    0.761E-02
RMM:   4    -0.116246847815E+04   -0.21826E-04   -0.21099E-04  7672   0.189E-02    0.467E-02
RMM:   5    -0.116246854670E+04   -0.68549E-04   -0.10721E-04  7221   0.131E-02    0.277E-02
RMM:   6    -0.116246858502E+04   -0.38318E-04   -0.41810E-05  6974   0.897E-03    0.269E-02
RMM:   7    -0.116246862355E+04   -0.38525E-04   -0.30320E-05  6786   0.651E-03    0.260E-02
RMM:   8    -0.116246868397E+04   -0.60423E-04   -0.36282E-05  6677   0.712E-03
  22 F= -.11624687E+04 E0= -.11624673E+04  d E =-.197955E-02  mag=     2.0125
       N       E                     dE             d eps       ncg     rms          rms(c)
DAV:   1    -0.116246864483E+04   -0.21279E-04   -0.60892E-01 12704   0.901E-01    0.160E-01
RMM:   2    -0.116247011877E+04   -0.14739E-02   -0.15043E-02 12705   0.151E-01    0.990E-02
RMM:   3    -0.116247014257E+04   -0.23800E-04   -0.67910E-04 10436   0.487E-02    0.676E-02
RMM:   4    -0.116247017428E+04   -0.31709E-04   -0.16800E-04  7393   0.172E-02    0.421E-02
RMM:   5    -0.116247024476E+04   -0.70475E-04   -0.91755E-05  7158   0.116E-02    0.272E-02
RMM:   6    -0.116247028534E+04   -0.40584E-04   -0.37728E-05  6913   0.816E-03    0.270E-02
RMM:   7    -0.116247032030E+04   -0.34955E-04   -0.25810E-05  6661   0.588E-03    0.261E-02
RMM:   8    -0.116247037372E+04   -0.53425E-04   -0.29198E-05  6558   0.637E-03
  23 F= -.11624704E+04 E0= -.11624690E+04  d E =-.168975E-02  mag=     2.0125
       N       E                     dE             d eps       ncg     rms          rms(c)
DAV:   1    -0.116247012890E+04    0.19140E-03   -0.74682E-01 12776   0.998E-01    0.175E-01
RMM:   2    -0.116247191478E+04   -0.17859E-02   -0.18369E-02 12667   0.167E-01    0.109E-01
RMM:   3    -0.116247194260E+04   -0.27812E-04   -0.86155E-04 11111   0.556E-02    0.742E-02
RMM:   4    -0.116247197226E+04   -0.29669E-04   -0.20442E-04  7596   0.188E-02    0.466E-02
RMM:   5    -0.116247204475E+04   -0.72485E-04   -0.10430E-04  7194   0.128E-02    0.286E-02
RMM:   6    -0.116247208593E+04   -0.41186E-04   -0.41571E-05  6946   0.882E-03    0.279E-02
RMM:   7    -0.116247212487E+04   -0.38932E-04   -0.29283E-05  6761   0.635E-03    0.269E-02
RMM:   8    -0.116247217503E+04   -0.50166E-04   -0.27667E-05  6594   0.631E-03
  24 F= -.11624722E+04 E0= -.11624707E+04  d E =-.180131E-02  mag=     2.0125
       N       E                     dE             d eps       ncg     rms          rms(c)
DAV:   1    -0.116247188152E+04    0.24335E-03   -0.69444E-01 12704   0.961E-01    0.169E-01
RMM:   2    -0.116247354935E+04   -0.16678E-02   -0.17060E-02 12743   0.160E-01    0.105E-01
RMM:   3    -0.116247357494E+04   -0.25590E-04   -0.77944E-04 10821   0.520E-02    0.713E-02
RMM:   4    -0.116247360654E+04   -0.31598E-04   -0.18280E-04  7444   0.181E-02    0.447E-02
RMM:   5    -0.116247368255E+04   -0.76007E-04   -0.10242E-04  7178   0.123E-02    0.286E-02
RMM:   6    -0.116247372439E+04   -0.41842E-04   -0.40041E-05  6921   0.858E-03    0.280E-02
RMM:   7    -0.116247376165E+04   -0.37260E-04   -0.27909E-05  6716   0.614E-03    0.272E-02
RMM:   8    -0.116247380803E+04   -0.46385E-04   -0.24788E-05  6526   0.605E-03
  25 F= -.11624738E+04 E0= -.11624724E+04  d E =-.163300E-02  mag=     2.0127
