       N       E                     dE             d eps       ncg     rms          rms(c)
DAV:   1    -0.116286089548E+04   -0.11629E+04   -0.29107E-05  3880   0.157E-02    0.244E-02
RMM:   2    -0.116286096743E+04   -0.71949E-04   -0.78070E-05  2971   0.103E-02    0.311E-02
RMM:   3    -0.116286098704E+04   -0.19610E-04   -0.15663E-05  2259   0.385E-03    0.259E-02
RMM:   4    -0.116286093728E+04    0.49760E-04   -0.91736E-06  2375   0.479E-03    0.257E-02
RMM:   5    -0.116286090666E+04    0.30627E-04   -0.60358E-06  1649   0.303E-03    0.255E-02
RMM:   6    -0.116286095430E+04   -0.47644E-04   -0.60035E-06  1592   0.393E-03    0.253E-02
RMM:   7    -0.116286116533E+04   -0.21103E-03   -0.18637E-04  3304   0.168E-02    0.236E-02
RMM:   8    -0.116286168465E+04   -0.51932E-03   -0.18131E-03  4768   0.484E-02    0.249E-02
RMM:   9    -0.116286187322E+04   -0.18857E-03   -0.32549E-04  3767   0.182E-02    0.233E-02
RMM:  10    -0.116286158426E+04    0.28895E-03   -0.27921E-04  3620   0.239E-02    0.265E-02
RMM:  11    -0.116286164475E+04   -0.60484E-04   -0.13948E-05  2487   0.469E-03
   1 F= -.11628616E+04 E0= -.11628616E+04  d E =-.116286E+04  mag=     6.0000
       N       E                     dE             d eps       ncg     rms          rms(c)
DAV:   1    -0.116286132860E+04    0.25566E-03   -0.33446E-01  6408   0.646E-01    0.287E-01
RMM:   2    -0.116286267928E+04   -0.13507E-02   -0.93301E-03  6157   0.126E-01    0.200E-01
RMM:   3    -0.116286280185E+04   -0.12257E-03   -0.46137E-04  5152   0.410E-02    0.109E-01
RMM:   4    -0.116286286421E+04   -0.62368E-04   -0.25964E-04  4183   0.209E-02    0.527E-02
RMM:   5    -0.116286294923E+04   -0.85016E-04   -0.10205E-04  3646   0.125E-02    0.352E-02
RMM:   6    -0.116286300318E+04   -0.53952E-04   -0.40569E-05  3463   0.792E-03    0.341E-02
RMM:   7    -0.116286304984E+04   -0.46658E-04   -0.21817E-05  3231   0.516E-03    0.305E-02
RMM:   8    -0.116286313544E+04   -0.85604E-04   -0.31993E-05  3272   0.665E-03
   2 F= -.11628631E+04 E0= -.11628631E+04  d E =-.149070E-02  mag=     6.0000
       N       E                     dE             d eps       ncg     rms          rms(c)
DAV:   1    -0.116286370379E+04   -0.65395E-03   -0.66740E-02  6120   0.282E-01    0.144E-01
RMM:   2    -0.116286401460E+04   -0.31081E-03   -0.19994E-03  6062   0.578E-02    0.101E-01
RMM:   3    -0.116286407314E+04   -0.58543E-04   -0.10282E-04  3653   0.198E-02    0.612E-02
RMM:   4    -0.116286416953E+04   -0.96391E-04   -0.10848E-04  3645   0.125E-02    0.398E-02
RMM:   5    -0.116286427747E+04   -0.10794E-03   -0.71224E-05  3445   0.815E-03    0.337E-02
RMM:   6    -0.116286434109E+04   -0.63621E-04   -0.28805E-05  3073   0.580E-03    0.336E-02
RMM:   7    -0.116286440383E+04   -0.62734E-04   -0.23743E-05  2775   0.520E-03    0.319E-02
RMM:   8    -0.116286452798E+04   -0.12415E-03   -0.55518E-05  3143   0.832E-03    0.332E-02
RMM:   9    -0.116286463968E+04   -0.11171E-03   -0.61835E-05  2921   0.707E-03    0.317E-02
RMM:  10    -0.116286481627E+04   -0.17659E-03   -0.11625E-04  3259   0.109E-02    0.323E-02
RMM:  11    -0.116286521263E+04   -0.39636E-03   -0.65061E-04  4218   0.269E-02    0.313E-02
RMM:  12    -0.116286582896E+04   -0.61633E-03   -0.21633E-03  4892   0.515E-02    0.313E-02
RMM:  13    -0.116286623096E+04   -0.40200E-03   -0.10082E-03  4436   0.316E-02    0.317E-02
RMM:  14    -0.116286647344E+04   -0.24248E-03   -0.44772E-04  3922   0.203E-02    0.314E-02
RMM:  15    -0.116286636242E+04    0.11102E-03   -0.61260E-05  3433   0.121E-02    0.355E-02
RMM:  16    -0.116286590891E+04    0.45352E-03   -0.50442E-04  3973   0.272E-02    0.495E-02
RMM:  17    -0.116286630909E+04   -0.40018E-03   -0.30997E-04  3888   0.251E-02    0.457E-02
RMM:  18    -0.116286702862E+04   -0.71953E-03   -0.35102E-03  5120   0.687E-02    0.290E-02
RMM:  19    -0.116286781835E+04   -0.78973E-03   -0.49578E-03  5246   0.790E-02    0.319E-02
RMM:  20    -0.116286821457E+04   -0.39622E-03   -0.85767E-04  4512   0.263E-02    0.266E-02
RMM:  21    -0.116286861729E+04   -0.40271E-03   -0.16461E-03  4728   0.446E-02    0.355E-02
RMM:  22    -0.116286850238E+04    0.11490E-03   -0.15476E-04  3782   0.153E-02    0.487E-02
RMM:  23    -0.116286870063E+04   -0.19824E-03   -0.13918E-04  3475   0.151E-02    0.416E-02
RMM:  24    -0.116286898157E+04   -0.28094E-03   -0.52389E-04  4126   0.235E-02    0.394E-02
RMM:  25    -0.116286946733E+04   -0.48576E-03   -0.12760E-03  4583   0.383E-02    0.295E-02
RMM:  26    -0.116286997455E+04   -0.50723E-03   -0.72507E-03  5347   0.966E-02    0.623E-02
RMM:  27    -0.116287057244E+04   -0.59789E-03   -0.10220E-03  4602   0.283E-02    0.470E-02
RMM:  28    -0.116287058935E+04   -0.16908E-04   -0.63507E-05  3604   0.114E-02
   3 F= -.11628706E+04 E0= -.11628706E+04  d E =-.745390E-02  mag=     6.0000
       N       E                     dE             d eps       ncg     rms          rms(c)
DAV:   1    -0.116286861314E+04    0.19593E-02   -0.49252E-02  6320   0.211E-01    0.153E-01
RMM:   2    -0.116286900151E+04   -0.38837E-03   -0.13146E-03  5508   0.431E-02    0.898E-02
RMM:   3    -0.116286906517E+04   -0.63662E-04   -0.71648E-05  3552   0.146E-02    0.429E-02
RMM:   4    -0.116286910958E+04   -0.44408E-04   -0.43934E-05  3438   0.821E-03    0.260E-02
RMM:   5    -0.116286914883E+04   -0.39256E-04   -0.30619E-05  3022   0.535E-03    0.205E-02
RMM:   6    -0.116286916876E+04   -0.19920E-04   -0.95681E-06  2366   0.362E-03    0.191E-02
RMM:   7    -0.116286919418E+04   -0.25426E-04   -0.97736E-06  2491   0.400E-03    0.194E-02
RMM:   8    -0.116286925655E+04   -0.62373E-04   -0.39571E-05  2988   0.694E-03
   4 F= -.11628693E+04 E0= -.11628693E+04  d E =0.133279E-02  mag=     6.0000
       N       E                     dE             d eps       ncg     rms          rms(c)
DAV:   1    -0.116286780704E+04    0.13871E-02   -0.29792E-02  6112   0.161E-01    0.123E-01
RMM:   2    -0.116286804244E+04   -0.23540E-03   -0.61698E-04  4831   0.309E-02    0.642E-02
RMM:   3    -0.116286808993E+04   -0.47490E-04   -0.42495E-05  3399   0.116E-02    0.281E-02
RMM:   4    -0.116286811813E+04   -0.28195E-04   -0.24264E-05  3265   0.641E-03    0.195E-02
RMM:   5    -0.116286814689E+04   -0.28762E-04   -0.19540E-05  2832   0.472E-03    0.167E-02
RMM:   6    -0.116286816066E+04   -0.13777E-04   -0.96506E-06  1987   0.288E-03    0.153E-02
RMM:   7    -0.116286818572E+04   -0.25059E-04   -0.12986E-05  2416   0.452E-03    0.163E-02
RMM:   8    -0.116286820695E+04   -0.21231E-04   -0.11353E-05  2040   0.349E-03
   5 F= -.11628682E+04 E0= -.11628682E+04  d E =0.104960E-02  mag=     6.0000
       N       E                     dE             d eps       ncg     rms          rms(c)
DAV:   1    -0.116286957798E+04   -0.13923E-02   -0.92390E-02  6136   0.285E-01    0.216E-01
RMM:   2    -0.116287029409E+04   -0.71610E-03   -0.19119E-03  6011   0.542E-02    0.112E-01
RMM:   3    -0.116287042656E+04   -0.13247E-03   -0.12010E-04  3539   0.200E-02    0.454E-02
RMM:   4    -0.116287047405E+04   -0.47497E-04   -0.50077E-05  3272   0.873E-03    0.281E-02
RMM:   5    -0.116287052507E+04   -0.51020E-04   -0.33443E-05  2860   0.575E-03    0.221E-02
RMM:   6    -0.116287055305E+04   -0.27978E-04   -0.13297E-05  2478   0.406E-03    0.216E-02
RMM:   7    -0.116287057017E+04   -0.17118E-04   -0.66005E-06  1849   0.320E-03    0.207E-02
RMM:   8    -0.116287051907E+04    0.51101E-04   -0.13045E-05  2499   0.578E-03
   6 F= -.11628705E+04 E0= -.11628705E+04  d E =-.231211E-02  mag=     6.0000
       N       E                     dE             d eps       ncg     rms          rms(c)
DAV:   1    -0.116287082333E+04   -0.25315E-03   -0.50083E-01  6256   0.670E-01    0.495E-01
RMM:   2    -0.116287454630E+04   -0.37230E-02   -0.10574E-02  6169   0.127E-01    0.259E-01
RMM:   3    -0.116287517596E+04   -0.62965E-03   -0.64484E-04  4909   0.450E-02    0.100E-01
RMM:   4    -0.116287531828E+04   -0.14233E-03   -0.20840E-04  3842   0.188E-02    0.574E-02
RMM:   5    -0.116287545303E+04   -0.13474E-03   -0.10678E-04  3569   0.120E-02    0.390E-02
RMM:   6    -0.116287553015E+04   -0.77123E-04   -0.54494E-05  3319   0.809E-03    0.363E-02
RMM:   7    -0.116287560342E+04   -0.73272E-04   -0.34351E-05  3095   0.601E-03    0.342E-02
RMM:   8    -0.116287568462E+04   -0.81199E-04   -0.30522E-05  3007   0.575E-03
   7 F= -.11628757E+04 E0= -.11628757E+04  d E =-.516555E-02  mag=     6.0000
       N       E                     dE             d eps       ncg     rms          rms(c)
DAV:   1    -0.116287654711E+04   -0.94369E-03   -0.15781E-01  6192   0.371E-01    0.288E-01
RMM:   2    -0.116287787326E+04   -0.13262E-02   -0.32058E-03  6109   0.698E-02    0.150E-01
RMM:   3    -0.116287815062E+04   -0.27737E-03   -0.20183E-04  3855   0.259E-02    0.656E-02
RMM:   4    -0.116287833777E+04   -0.18715E-03   -0.13310E-04  3596   0.137E-02    0.466E-02
RMM:   5    -0.116287852887E+04   -0.19110E-03   -0.11281E-04  3462   0.101E-02    0.404E-02
RMM:   6    -0.116287864202E+04   -0.11315E-03   -0.54692E-05  3091   0.706E-03    0.411E-02
RMM:   7    -0.116287870711E+04   -0.65085E-04   -0.26112E-05  2690   0.504E-03    0.396E-02
RMM:   8    -0.116287865993E+04    0.47175E-04   -0.75493E-06  2665   0.483E-03
   8 F= -.11628787E+04 E0= -.11628787E+04  d E =-.297531E-02  mag=     6.0000
       N       E                     dE             d eps       ncg     rms          rms(c)
DAV:   1    -0.116287944000E+04   -0.73289E-03   -0.14455E-01  6176   0.354E-01    0.277E-01
RMM:   2    -0.116288071428E+04   -0.12743E-02   -0.29480E-03  6120   0.672E-02    0.145E-01
RMM:   3    -0.116288100409E+04   -0.28980E-03   -0.19176E-04  3845   0.257E-02    0.664E-02
RMM:   4    -0.116288124189E+04   -0.23781E-03   -0.14408E-04  3590   0.141E-02    0.503E-02
RMM:   5    -0.116288150042E+04   -0.25852E-03   -0.14694E-04  3518   0.115E-02    0.454E-02
RMM:   6    -0.116288166759E+04   -0.16717E-03   -0.84528E-05  3152   0.831E-03    0.461E-02
RMM:   7    -0.116288169043E+04   -0.22836E-04   -0.17381E-05  2772   0.484E-03    0.448E-02
RMM:   8    -0.116288182272E+04   -0.13229E-03   -0.37168E-05  2859   0.736E-03    0.484E-02
RMM:   9    -0.116288147853E+04    0.34419E-03   -0.12482E-04  3351   0.160E-02    0.461E-02
RMM:  10    -0.116288237760E+04   -0.89907E-03   -0.10707E-03  4533   0.416E-02    0.530E-02
RMM:  11    -0.116288411895E+04   -0.17413E-02   -0.10887E-02  5489   0.122E-01    0.814E-02
RMM:  12    -0.116288491564E+04   -0.79669E-03   -0.14369E-03  4780   0.349E-02    0.823E-02
RMM:  13    -0.116288382613E+04    0.10895E-02   -0.16452E-03  4791   0.538E-02    0.777E-02
RMM:  14    -0.116288319842E+04    0.62770E-03   -0.97713E-04  4188   0.356E-02    0.825E-02
RMM:  15    -0.116288162692E+04    0.15715E-02   -0.32891E-03  5004   0.641E-02    0.886E-02
RMM:  16    -0.116288315968E+04   -0.15328E-02   -0.15538E-03  4873   0.548E-02    0.813E-02
RMM:  17    -0.116288393490E+04   -0.77522E-03   -0.15876E-03  4549   0.436E-02    0.677E-02
RMM:  18    -0.116288537289E+04   -0.14380E-02   -0.10810E-02  5442   0.119E-01    0.646E-02
RMM:  19    -0.116288654363E+04   -0.11707E-02   -0.35748E-03  5058   0.566E-02    0.612E-02
RMM:  20    -0.116288632472E+04    0.21891E-03   -0.39688E-04  4155   0.305E-02    0.593E-02
RMM:  21    -0.116288638191E+04   -0.57196E-04   -0.42000E-05  3137   0.828E-03
   9 F= -.11628864E+04 E0= -.11628864E+04  d E =-.772198E-02  mag=     6.0000
       N       E                     dE             d eps       ncg     rms          rms(c)
DAV:   1    -0.116288359455E+04    0.27302E-02   -0.11185E+00  6344   0.992E-01    0.742E-01
RMM:   2    -0.116289212885E+04   -0.85343E-02   -0.23567E-02  6184   0.189E-01    0.390E-01
RMM:   3    -0.116289360558E+04   -0.14767E-02   -0.15023E-03  5798   0.671E-02    0.145E-01
RMM:   4    -0.116289390937E+04   -0.30379E-03   -0.51100E-04  4431   0.280E-02    0.878E-02
RMM:   5    -0.116289417843E+04   -0.26906E-03   -0.23549E-04  3827   0.181E-02    0.609E-02
RMM:   6    -0.116289435768E+04   -0.17925E-03   -0.10337E-04  3597   0.120E-02    0.503E-02
RMM:   7    -0.116289453901E+04   -0.18134E-03   -0.86102E-05  3500   0.920E-03    0.475E-02
RMM:   8    -0.116289483872E+04   -0.29971E-03   -0.16017E-04  3560   0.132E-02    0.492E-02
RMM:   9    -0.116289516188E+04   -0.32316E-03   -0.22092E-04  3613   0.136E-02    0.460E-02
RMM:  10    -0.116289611514E+04   -0.95326E-03   -0.18139E-03  4685   0.459E-02    0.431E-02
RMM:  11    -0.116289739339E+04   -0.12782E-02   -0.74143E-03  5326   0.959E-02    0.458E-02
RMM:  12    -0.116289802100E+04   -0.62761E-03   -0.12801E-03  4643   0.315E-02    0.383E-02
RMM:  13    -0.116289816294E+04   -0.14194E-03   -0.16831E-04  3742   0.144E-02    0.389E-02
RMM:  14    -0.116289811729E+04    0.45653E-04   -0.35896E-05  3389   0.943E-03
  10 F= -.11628981E+04 E0= -.11628981E+04  d E =-.117354E-01  mag=     6.0000
       N       E                     dE             d eps       ncg     rms          rms(c)
DAV:   1    -0.116287825630E+04    0.19907E-01   -0.12301E+00  6280   0.104E+00    0.790E-01
RMM:   2    -0.116288719377E+04   -0.89375E-02   -0.25253E-02  6174   0.198E-01    0.410E-01
RMM:   3    -0.116288871445E+04   -0.15207E-02   -0.16706E-03  5914   0.716E-02    0.152E-01
RMM:   4    -0.116288873311E+04   -0.18662E-04   -0.41781E-04  4821   0.247E-02    0.748E-02
RMM:   5    -0.116288878025E+04   -0.47138E-04   -0.15606E-04  3816   0.174E-02    0.260E-02
RMM:   6    -0.116288880269E+04   -0.22441E-04   -0.36801E-05  3560   0.902E-03    0.211E-02
RMM:   7    -0.116288882805E+04   -0.25359E-04   -0.22591E-05  3384   0.645E-03    0.190E-02
RMM:   8    -0.116288885296E+04   -0.24913E-04   -0.16566E-05  3301   0.501E-03
  11 F= -.11628889E+04 E0= -.11628888E+04  d E =0.926433E-02  mag=     6.0000
       N       E                     dE             d eps       ncg     rms          rms(c)
DAV:   1    -0.116287962053E+04    0.92075E-02   -0.45742E-01  6224   0.660E-01    0.439E-01
RMM:   2    -0.116288251525E+04   -0.28947E-02   -0.10138E-02  6121   0.125E-01    0.237E-01
RMM:   3    -0.116288295205E+04   -0.43679E-03   -0.58854E-04  5085   0.436E-02    0.954E-02
RMM:   4    -0.116288294377E+04    0.82732E-05   -0.15866E-04  3845   0.158E-02    0.446E-02
RMM:   5    -0.116288295261E+04   -0.88360E-05   -0.56172E-05  3566   0.103E-02    0.177E-02
RMM:   6    -0.116288295645E+04   -0.38369E-05   -0.14442E-05  3374   0.608E-03    0.113E-02
RMM:   7    -0.116288295987E+04   -0.34252E-05   -0.70717E-06  2943   0.388E-03    0.972E-03
RMM:   8    -0.116288296584E+04   -0.59652E-05   -0.64545E-06  2833   0.364E-03
  12 F= -.11628830E+04 E0= -.11628830E+04  d E =0.588712E-02  mag=     6.0000
       N       E                     dE             d eps       ncg     rms          rms(c)
DAV:   1    -0.116277717902E+04    0.10578E+00   -0.16400E+01  6304   0.380E+00    0.278E+00
RMM:   2    -0.116289175817E+04   -0.11458E+00   -0.34612E-01  6224   0.735E-01    0.155E+00
RMM:   3    -0.116291070779E+04   -0.18950E-01   -0.20760E-02  6216   0.248E-01    0.529E-01
RMM:   4    -0.116291106962E+04   -0.36183E-03   -0.50531E-03  7030   0.876E-02    0.302E-01
RMM:   5    -0.116291149551E+04   -0.42589E-03   -0.18046E-03  5836   0.416E-02    0.177E-01
RMM:   6    -0.116291182714E+04   -0.33163E-03   -0.38890E-04  4329   0.245E-02    0.669E-02
RMM:   7    -0.116291203521E+04   -0.20807E-03   -0.14945E-04  3825   0.150E-02    0.570E-02
RMM:   8    -0.116291231871E+04   -0.28350E-03   -0.17922E-04  3806   0.147E-02    0.511E-02
RMM:   9    -0.116291264439E+04   -0.32569E-03   -0.20873E-04  3776   0.150E-02    0.502E-02
RMM:  10    -0.116291315641E+04   -0.51202E-03   -0.46924E-04  3985   0.217E-02    0.437E-02
RMM:  11    -0.116291420005E+04   -0.10436E-02   -0.28503E-03  4904   0.574E-02    0.376E-02
RMM:  12    -0.116291494926E+04   -0.74921E-03   -0.25181E-03  4738   0.504E-02    0.325E-02
RMM:  13    -0.116291534766E+04   -0.39840E-03   -0.10988E-03  4370   0.283E-02    0.283E-02
RMM:  14    -0.116291570744E+04   -0.35978E-03   -0.10971E-03  4377   0.322E-02    0.262E-02
RMM:  15    -0.116291600214E+04   -0.29470E-03   -0.10275E-03  4245   0.297E-02    0.220E-02
RMM:  16    -0.116291624423E+04   -0.24209E-03   -0.18004E-03  4524   0.421E-02    0.204E-02
RMM:  17    -0.116291642801E+04   -0.18378E-03   -0.84840E-04  4153   0.240E-02    0.120E-02
RMM:  18    -0.116291649332E+04   -0.65306E-04   -0.41502E-04  3787   0.185E-02
  13 F= -.11629165E+04 E0= -.11629165E+04  d E =-.335275E-01  mag=     6.0000
       N       E                     dE             d eps       ncg     rms          rms(c)
DAV:   1    -0.116291559133E+04    0.83668E-03   -0.98212E-01  6192   0.988E-01    0.566E-01
RMM:   2    -0.116292087186E+04   -0.52805E-02   -0.21182E-02  6216   0.178E-01    0.298E-01
RMM:   3    -0.116292166193E+04   -0.79007E-03   -0.14306E-03  5795   0.646E-02    0.120E-01
RMM:   4    -0.116292166291E+04   -0.97539E-06   -0.31706E-04  4287   0.220E-02    0.580E-02
RMM:   5    -0.116292168292E+04   -0.20015E-04   -0.82939E-05  3612   0.137E-02    0.289E-02
RMM:   6    -0.116292169418E+04   -0.11255E-04   -0.28596E-05  3503   0.786E-03    0.164E-02
RMM:   7    -0.116292170245E+04   -0.82786E-05   -0.13403E-05  3383   0.547E-03    0.129E-02
RMM:   8    -0.116292171861E+04   -0.16157E-04   -0.16538E-05  3253   0.560E-03
  14 F= -.11629217E+04 E0= -.11629217E+04  d E =-.522529E-02  mag=     6.0000
       N       E                     dE             d eps       ncg     rms          rms(c)
DAV:   1    -0.116292162406E+04    0.78393E-04   -0.64789E-01  6256   0.830E-01    0.388E-01
RMM:   2    -0.116292444289E+04   -0.28188E-02   -0.14390E-02  6299   0.146E-01    0.207E-01
RMM:   3    -0.116292479059E+04   -0.34770E-03   -0.81252E-04  5239   0.495E-02    0.910E-02
RMM:   4    -0.116292480167E+04   -0.11077E-04   -0.18838E-04  3849   0.184E-02    0.453E-02
RMM:   5    -0.116292483017E+04   -0.28504E-04   -0.66035E-05  3572   0.113E-02    0.319E-02
RMM:   6    -0.116292484693E+04   -0.16757E-04   -0.25732E-05  3451   0.769E-03    0.171E-02
RMM:   7    -0.116292486176E+04   -0.14835E-04   -0.15475E-05  3278   0.527E-03    0.153E-02
RMM:   8    -0.116292488466E+04   -0.22892E-04   -0.16955E-05  3153   0.555E-03
  15 F= -.11629249E+04 E0= -.11629249E+04  d E =-.316604E-02  mag=     6.0000
       N       E                     dE             d eps       ncg     rms          rms(c)
DAV:   1    -0.116292261523E+04    0.22465E-02   -0.11245E+00  6256   0.109E+00    0.508E-01
RMM:   2    -0.116292751496E+04   -0.48997E-02   -0.24906E-02  6317   0.191E-01    0.269E-01
RMM:   3    -0.116292812510E+04   -0.61013E-03   -0.14605E-03  5888   0.651E-02    0.117E-01
RMM:   4    -0.116292815355E+04   -0.28452E-04   -0.31656E-04  4189   0.231E-02    0.574E-02
RMM:   5    -0.116292820406E+04   -0.50507E-04   -0.10270E-04  3623   0.144E-02    0.366E-02
RMM:   6    -0.116292823326E+04   -0.29207E-04   -0.49020E-05  3503   0.910E-03    0.214E-02
RMM:   7    -0.116292826072E+04   -0.27453E-04   -0.26455E-05  3392   0.662E-03    0.189E-02
RMM:   8    -0.116292830849E+04   -0.47775E-04   -0.36747E-05  3326   0.749E-03
  16 F= -.11629283E+04 E0= -.11629283E+04  d E =-.342384E-02  mag=     5.9999
       N       E                     dE             d eps       ncg     rms          rms(c)
DAV:   1    -0.116291624526E+04    0.12015E-01   -0.34742E+00  6224   0.193E+00    0.843E-01
RMM:   2    -0.116293032707E+04   -0.14082E-01   -0.78170E-02  6323   0.338E-01    0.459E-01
RMM:   3    -0.116293194589E+04   -0.16188E-02   -0.45588E-03  6455   0.115E-01    0.206E-01
RMM:   4    -0.116293197109E+04   -0.25199E-04   -0.10760E-03  5834   0.393E-02    0.984E-02
RMM:   5    -0.116293207932E+04   -0.10823E-03   -0.28740E-04  4157   0.223E-02    0.510E-02
RMM:   6    -0.116293214592E+04   -0.66600E-04   -0.10583E-04  3619   0.126E-02    0.303E-02
RMM:   7    -0.116293222283E+04   -0.76909E-04   -0.71335E-05  3560   0.105E-02    0.285E-02
RMM:   8    -0.116293230269E+04   -0.79855E-04   -0.61858E-05  3485   0.887E-03
  17 F= -.11629323E+04 E0= -.11629323E+04  d E =-.399420E-02  mag=     5.9999
       N       E                     dE             d eps       ncg     rms          rms(c)
DAV:   1    -0.116293203295E+04    0.18989E-03   -0.15666E-01  6448   0.414E-01    0.235E-01
RMM:   2    -0.116293289772E+04   -0.86478E-03   -0.36891E-03  6144   0.773E-02    0.130E-01
RMM:   3    -0.116293302793E+04   -0.13021E-03   -0.20464E-04  3908   0.284E-02    0.607E-02
RMM:   4    -0.116293307585E+04   -0.47924E-04   -0.11303E-04  3656   0.136E-02    0.308E-02
RMM:   5    -0.116293312128E+04   -0.45427E-04   -0.55535E-05  3484   0.773E-03    0.208E-02
RMM:   6    -0.116293314666E+04   -0.25380E-04   -0.20328E-05  3227   0.569E-03    0.185E-02
RMM:   7    -0.116293317965E+04   -0.32987E-04   -0.18795E-05  2852   0.492E-03    0.171E-02
RMM:   8    -0.116293325315E+04   -0.73500E-04   -0.67316E-05  3292   0.868E-03
  18 F= -.11629333E+04 E0= -.11629332E+04  d E =-.950457E-03  mag=     5.9999
       N       E                     dE             d eps       ncg     rms          rms(c)
DAV:   1    -0.116293307407E+04    0.10558E-03   -0.39918E-01  6160   0.685E-01    0.197E-01
RMM:   2    -0.116293419935E+04   -0.11253E-02   -0.92680E-03  6291   0.117E-01    0.115E-01
RMM:   3    -0.116293426841E+04   -0.69059E-04   -0.48111E-04  4529   0.400E-02    0.665E-02
RMM:   4    -0.116293428784E+04   -0.19429E-04   -0.13169E-04  3653   0.149E-02    0.336E-02
RMM:   5    -0.116293432653E+04   -0.38690E-04   -0.56854E-05  3499   0.967E-03    0.198E-02
RMM:   6    -0.116293434644E+04   -0.19908E-04   -0.22359E-05  3362   0.650E-03    0.169E-02
RMM:   7    -0.116293437044E+04   -0.24004E-04   -0.17477E-05  3065   0.536E-03    0.152E-02
RMM:   8    -0.116293442383E+04   -0.53391E-04   -0.50012E-05  3218   0.785E-03
  19 F= -.11629344E+04 E0= -.11629344E+04  d E =-.117069E-02  mag=     5.9999
       N       E                     dE             d eps       ncg     rms          rms(c)
DAV:   1    -0.116293351911E+04    0.85133E-03   -0.57592E-01  6240   0.819E-01    0.247E-01
RMM:   2    -0.116293520459E+04   -0.16855E-02   -0.13283E-02  6309   0.140E-01    0.140E-01
RMM:   3    -0.116293531613E+04   -0.11154E-03   -0.71472E-04  5018   0.473E-02    0.774E-02
RMM:   4    -0.116293532465E+04   -0.85167E-05   -0.16992E-04  3761   0.169E-02    0.394E-02
RMM:   5    -0.116293535885E+04   -0.34205E-04   -0.67031E-05  3528   0.110E-02    0.241E-02
RMM:   6    -0.116293537702E+04   -0.18164E-04   -0.25928E-05  3412   0.726E-03    0.170E-02
RMM:   7    -0.116293539664E+04   -0.19620E-04   -0.17511E-05  3225   0.555E-03    0.151E-02
RMM:   8    -0.116293543483E+04   -0.38189E-04   -0.31426E-05  3200   0.669E-03
  20 F= -.11629354E+04 E0= -.11629354E+04  d E =-.101099E-02  mag=     5.9999
       N       E                     dE             d eps       ncg     rms          rms(c)
DAV:   1    -0.116293553092E+04   -0.13428E-03   -0.14467E-01  6272   0.429E-01    0.111E-01
RMM:   2    -0.116293591992E+04   -0.38900E-03   -0.34651E-03  6273   0.734E-02    0.648E-02
RMM:   3    -0.116293593836E+04   -0.18443E-04   -0.16038E-04  3711   0.251E-02    0.391E-02
RMM:   4    -0.116293595171E+04   -0.13349E-04   -0.60074E-05  3506   0.988E-03    0.213E-02
RMM:   5    -0.116293597210E+04   -0.20393E-04   -0.27328E-05  3408   0.641E-03    0.134E-02
RMM:   6    -0.116293598375E+04   -0.11649E-04   -0.12022E-05  3035   0.465E-03    0.118E-02
RMM:   7    -0.116293599817E+04   -0.14417E-04   -0.10115E-05  2630   0.412E-03    0.109E-02
RMM:   8    -0.116293602817E+04   -0.29999E-04   -0.29431E-05  2987   0.604E-03
  21 F= -.11629360E+04 E0= -.11629360E+04  d E =-.593341E-03  mag=     5.9999
       N       E                     dE             d eps       ncg     rms          rms(c)
DAV:   1    -0.116293605426E+04   -0.56087E-04   -0.14664E-01  6144   0.430E-01    0.979E-02
RMM:   2    -0.116293642316E+04   -0.36890E-03   -0.35175E-03  6209   0.737E-02    0.580E-02
RMM:   3    -0.116293643408E+04   -0.10925E-04   -0.16112E-04  3706   0.256E-02    0.365E-02
RMM:   4    -0.116293644062E+04   -0.65388E-05   -0.54960E-05  3486   0.961E-03    0.191E-02
RMM:   5    -0.116293645339E+04   -0.12771E-04   -0.21820E-05  3341   0.599E-03    0.112E-02
RMM:   6    -0.116293645978E+04   -0.63852E-05   -0.84817E-06  2945   0.438E-03    0.950E-03
RMM:   7    -0.116293646772E+04   -0.79386E-05   -0.71742E-06  2429   0.352E-03    0.857E-03
RMM:   8    -0.116293648304E+04   -0.15324E-04   -0.13914E-05  2712   0.439E-03
  22 F= -.11629365E+04 E0= -.11629364E+04  d E =-.454873E-03  mag=     5.9999
