       N       E                     dE             d eps       ncg     rms          rms(c)
DAV:   1    -0.116309818116E+04   -0.11631E+04   -0.19838E-04 10216   0.336E-02    0.508E-02
RMM:   2    -0.116309846847E+04   -0.28732E-03   -0.16639E-04  7216   0.166E-02    0.672E-02
RMM:   3    -0.116309854646E+04   -0.77988E-04   -0.39393E-05  5631   0.617E-03    0.518E-02
RMM:   4    -0.116309854167E+04    0.47930E-05   -0.11141E-05  5011   0.417E-03    0.540E-02
RMM:   5    -0.116309854256E+04   -0.89283E-06   -0.39189E-06  3878   0.273E-03    0.520E-02
RMM:   6    -0.116309848139E+04    0.61169E-04   -0.18279E-05  5575   0.530E-03    0.893E-02
RMM:   7    -0.116309858184E+04   -0.10044E-03   -0.22734E-05  5788   0.634E-03    0.164E-01
RMM:   8    -0.116309890368E+04   -0.32184E-03   -0.13573E-04  6721   0.143E-02    0.294E-01
RMM:   9    -0.116309930815E+04   -0.40447E-03   -0.25405E-04  7092   0.158E-02    0.363E-01
RMM:  10    -0.116309961024E+04   -0.30209E-03   -0.17547E-04  6324   0.116E-02    0.374E-01
RMM:  11    -0.116309990511E+04   -0.29487E-03   -0.15352E-04  6538   0.108E-02    0.383E-01
RMM:  12    -0.116309999703E+04   -0.91928E-04   -0.38200E-05  5275   0.586E-03
   1 F= -.11631000E+04 E0= -.11630986E+04  d E =-.116310E+04  mag=     5.9768
       N       E                     dE             d eps       ncg     rms          rms(c)
DAV:   1    -0.116309886009E+04    0.10450E-02   -0.16367E+00 12768   0.143E+00    0.705E-01
RMM:   2    -0.116310410550E+04   -0.52454E-02   -0.48692E-02 12294   0.285E-01    0.566E-01
RMM:   3    -0.116310437578E+04   -0.27027E-03   -0.24939E-03 12488   0.853E-02    0.282E-01
RMM:   4    -0.116310442720E+04   -0.51420E-04   -0.15059E-03 11831   0.441E-02    0.149E-01
RMM:   5    -0.116310483951E+04   -0.41231E-03   -0.62158E-04 10463   0.324E-02    0.789E-02
RMM:   6    -0.116310503817E+04   -0.19866E-03   -0.13072E-04  7852   0.142E-02    0.686E-02
RMM:   7    -0.116310546439E+04   -0.42622E-03   -0.21828E-04  7863   0.147E-02    0.636E-02
RMM:   8    -0.116310599420E+04   -0.52982E-03   -0.32247E-04  7924   0.178E-02    0.605E-02
RMM:   9    -0.116310631399E+04   -0.31978E-03   -0.19149E-04  7316   0.123E-02    0.602E-02
RMM:  10    -0.116310652917E+04   -0.21518E-03   -0.92634E-05  6921   0.904E-03    0.596E-02
RMM:  11    -0.116310697752E+04   -0.44835E-03   -0.21485E-04  7176   0.139E-02    0.599E-02
RMM:  12    -0.116310834444E+04   -0.13669E-02   -0.19478E-03  9590   0.470E-02    0.568E-02
RMM:  13    -0.116310986782E+04   -0.15234E-02   -0.32619E-03 10138   0.613E-02    0.583E-02
RMM:  14    -0.116311082228E+04   -0.95446E-03   -0.17767E-03  9544   0.404E-02    0.583E-02
RMM:  15    -0.116311231375E+04   -0.14915E-02   -0.38335E-03 10227   0.650E-02    0.576E-02
RMM:  16    -0.116311253235E+04   -0.21859E-03   -0.57839E-04  8702   0.207E-02    0.610E-02
RMM:  17    -0.116311248097E+04    0.51373E-04   -0.83667E-05  7189   0.137E-02
   2 F= -.11631125E+04 E0= -.11631112E+04  d E =-.124839E-01  mag=     5.9784
       N       E                     dE             d eps       ncg     rms          rms(c)
DAV:   1    -0.116311530315E+04   -0.27708E-02   -0.46340E-01 12536   0.719E-01    0.384E-01
RMM:   2    -0.116311759905E+04   -0.22959E-02   -0.13761E-02 12261   0.151E-01    0.278E-01
RMM:   3    -0.116311792701E+04   -0.32795E-03   -0.82996E-04 11281   0.492E-02    0.150E-01
RMM:   4    -0.116311828293E+04   -0.35593E-03   -0.62247E-04 10422   0.291E-02    0.970E-02
RMM:   5    -0.116311867308E+04   -0.39015E-03   -0.32479E-04  8609   0.219E-02    0.663E-02
RMM:   6    -0.116311889423E+04   -0.22116E-03   -0.12772E-04  7358   0.113E-02    0.607E-02
RMM:   7    -0.116311928911E+04   -0.39488E-03   -0.19223E-04  7321   0.144E-02    0.627E-02
RMM:   8    -0.116311984608E+04   -0.55697E-03   -0.37490E-04  7931   0.189E-02    0.580E-02
RMM:   9    -0.116312040178E+04   -0.55570E-03   -0.43295E-04  7810   0.192E-02    0.573E-02
RMM:  10    -0.116312091050E+04   -0.50872E-03   -0.40439E-04  7623   0.183E-02    0.552E-02
RMM:  11    -0.116312279050E+04   -0.18800E-02   -0.51448E-03 10409   0.778E-02    0.526E-02
RMM:  12    -0.116312388630E+04   -0.10958E-02   -0.24509E-03  9750   0.483E-02    0.505E-02
RMM:  13    -0.116312471554E+04   -0.82925E-03   -0.16005E-03  9260   0.386E-02    0.475E-02
RMM:  14    -0.116312526771E+04   -0.55216E-03   -0.93614E-04  8698   0.263E-02    0.467E-02
RMM:  15    -0.116312674279E+04   -0.14751E-02   -0.71724E-03 10586   0.912E-02    0.516E-02
RMM:  16    -0.116312794112E+04   -0.11983E-02   -0.36338E-03  9940   0.587E-02    0.428E-02
RMM:  17    -0.116312819912E+04   -0.25800E-03   -0.12154E-02 10888   0.119E-01    0.915E-02
RMM:  18    -0.116312975628E+04   -0.15572E-02   -0.17131E-03  9961   0.419E-02    0.230E-02
RMM:  19    -0.116313022910E+04   -0.47282E-03   -0.42453E-03 10148   0.677E-02    0.347E-02
RMM:  20    -0.116313077546E+04   -0.54636E-03   -0.32527E-03  9744   0.546E-02    0.237E-02
RMM:  21    -0.116313110254E+04   -0.32708E-03   -0.23987E-03  9426   0.448E-02    0.193E-02
RMM:  22    -0.116313132938E+04   -0.22685E-03   -0.14441E-03  8989   0.328E-02    0.146E-02
RMM:  23    -0.116313142878E+04   -0.99396E-04   -0.10727E-03  8596   0.297E-02    0.129E-02
RMM:  24    -0.116313151386E+04   -0.85078E-04   -0.33355E-04  7842   0.157E-02
   3 F= -.11631315E+04 E0= -.11631302E+04  d E =-.190329E-01  mag=     5.9782
       N       E                     dE             d eps       ncg     rms          rms(c)
DAV:   1    -0.116312203062E+04    0.93982E-02   -0.31452E-01 12464   0.512E-01    0.376E-01
RMM:   2    -0.116312421556E+04   -0.21849E-02   -0.72753E-03 12135   0.100E-01    0.206E-01
RMM:   3    -0.116312453830E+04   -0.32274E-03   -0.44830E-04  8995   0.350E-02    0.882E-02
RMM:   4    -0.116312454540E+04   -0.71045E-05   -0.11218E-04  7397   0.132E-02    0.429E-02
RMM:   5    -0.116312455771E+04   -0.12313E-04   -0.39931E-05  6924   0.832E-03    0.165E-02
RMM:   6    -0.116312456166E+04   -0.39466E-05   -0.93296E-06  6150   0.479E-03    0.113E-02
RMM:   7    -0.116312456589E+04   -0.42270E-05   -0.45611E-06  4765   0.302E-03    0.966E-03
RMM:   8    -0.116312457505E+04   -0.91634E-05   -0.78060E-06  5460   0.362E-03
   4 F= -.11631246E+04 E0= -.11631233E+04  d E =0.693881E-02  mag=     5.9784
       N       E                     dE             d eps       ncg     rms          rms(c)
DAV:   1    -0.116312741141E+04   -0.28455E-02   -0.10196E-01 12416   0.287E-01    0.230E-01
RMM:   2    -0.116312821233E+04   -0.80092E-03   -0.20714E-03 11865   0.543E-02    0.118E-01
RMM:   3    -0.116312834213E+04   -0.12980E-03   -0.12242E-04  7339   0.197E-02    0.435E-02
RMM:   4    -0.116312834776E+04   -0.56234E-05   -0.30222E-05  6731   0.703E-03    0.219E-02
RMM:   5    -0.116312835039E+04   -0.26384E-05   -0.90830E-06  5802   0.440E-03    0.113E-02
RMM:   6    -0.116312835097E+04   -0.58094E-06   -0.22863E-06  4314   0.265E-03    0.483E-03
RMM:   7    -0.116312835134E+04   -0.36275E-06   -0.65921E-07  2789   0.203E-03    0.324E-03
RMM:   8    -0.116312835208E+04   -0.74308E-06   -0.79531E-07  2710   0.206E-03
   5 F= -.11631284E+04 E0= -.11631270E+04  d E =-.377703E-02  mag=     5.9784
       N       E                     dE             d eps       ncg     rms          rms(c)
DAV:   1    -0.116312232968E+04    0.60217E-02   -0.22863E+00 12608   0.137E+00    0.110E+00
RMM:   2    -0.116314028233E+04   -0.17953E-01   -0.46311E-02 12346   0.259E-01    0.580E-01
RMM:   3    -0.116314323955E+04   -0.29572E-02   -0.30450E-03 12108   0.936E-02    0.213E-01
RMM:   4    -0.116314334990E+04   -0.11035E-03   -0.74333E-04 10345   0.343E-02    0.115E-01
RMM:   5    -0.116314342311E+04   -0.73214E-04   -0.22244E-04  7963   0.195E-02    0.570E-02
RMM:   6    -0.116314346372E+04   -0.40605E-04   -0.61775E-05  7206   0.106E-02    0.263E-02
RMM:   7    -0.116314350174E+04   -0.38018E-04   -0.33354E-05  7007   0.777E-03    0.230E-02
RMM:   8    -0.116314354503E+04   -0.43289E-04   -0.28454E-05  6804   0.662E-03
   6 F= -.11631435E+04 E0= -.11631422E+04  d E =-.151929E-01  mag=     5.9785
       N       E                     dE             d eps       ncg     rms          rms(c)
DAV:   1    -0.116313271735E+04    0.10784E-01   -0.22860E+00 12624   0.140E+00    0.109E+00
RMM:   2    -0.116315047120E+04   -0.17754E-01   -0.45662E-02 12366   0.260E-01    0.568E-01
RMM:   3    -0.116315342902E+04   -0.29578E-02   -0.30883E-03 12270   0.956E-02    0.208E-01
RMM:   4    -0.116315366559E+04   -0.23657E-03   -0.81929E-04 10489   0.351E-02    0.113E-01
RMM:   5    -0.116315382676E+04   -0.16117E-03   -0.23584E-04  7951   0.202E-02    0.607E-02
RMM:   6    -0.116315392762E+04   -0.10086E-03   -0.84974E-05  7254   0.118E-02    0.371E-02
RMM:   7    -0.116315403209E+04   -0.10447E-03   -0.59523E-05  7093   0.934E-03    0.344E-02
RMM:   8    -0.116315416752E+04   -0.13543E-03   -0.74066E-05  6987   0.934E-03    0.327E-02
RMM:   9    -0.116315438952E+04   -0.22200E-03   -0.17696E-04  7275   0.132E-02    0.288E-02
RMM:  10    -0.116315465478E+04   -0.26526E-03   -0.32862E-04  7504   0.170E-02    0.264E-02
RMM:  11    -0.116315508617E+04   -0.43140E-03   -0.13680E-03  8815   0.373E-02    0.210E-02
RMM:  12    -0.116315541349E+04   -0.32731E-03   -0.13146E-03  8660   0.349E-02    0.189E-02
RMM:  13    -0.116315555931E+04   -0.14582E-03   -0.34503E-04  7756   0.162E-02    0.179E-02
RMM:  14    -0.116315557772E+04   -0.18415E-04   -0.39775E-05  6431   0.818E-03
   7 F= -.11631556E+04 E0= -.11631543E+04  d E =-.120327E-01  mag=     5.9779
       N       E                     dE             d eps       ncg     rms          rms(c)
DAV:   1    -0.116315506511E+04    0.49420E-03   -0.61744E-01 12672   0.777E-01    0.490E-01
RMM:   2    -0.116315894275E+04   -0.38776E-02   -0.12819E-02 12473   0.140E-01    0.258E-01
RMM:   3    -0.116315955452E+04   -0.61177E-03   -0.87431E-04 10822   0.506E-02    0.100E-01
RMM:   4    -0.116315961759E+04   -0.63076E-04   -0.21110E-04  7794   0.188E-02    0.563E-02
RMM:   5    -0.116315968138E+04   -0.63783E-04   -0.85827E-05  7176   0.117E-02    0.350E-02
RMM:   6    -0.116315972278E+04   -0.41401E-04   -0.35209E-05  6945   0.812E-03    0.242E-02
RMM:   7    -0.116315975681E+04   -0.34031E-04   -0.21056E-05  6669   0.552E-03    0.221E-02
RMM:   8    -0.116315981061E+04   -0.53804E-04   -0.26072E-05  6381   0.614E-03
   8 F= -.11631598E+04 E0= -.11631585E+04  d E =-.423289E-02  mag=     5.9783
       N       E                     dE             d eps       ncg     rms          rms(c)
DAV:   1    -0.116316060487E+04   -0.84807E-03   -0.20664E-01 12608   0.497E-01    0.203E-01
RMM:   2    -0.116316147840E+04   -0.87353E-03   -0.48934E-03 12607   0.877E-02    0.112E-01
RMM:   3    -0.116316158500E+04   -0.10660E-03   -0.25298E-04  8015   0.302E-02    0.560E-02
RMM:   4    -0.116316164021E+04   -0.55211E-04   -0.97842E-05  7199   0.125E-02    0.333E-02
RMM:   5    -0.116316170116E+04   -0.60946E-04   -0.52183E-05  7015   0.827E-03    0.241E-02
RMM:   6    -0.116316173931E+04   -0.38148E-04   -0.24567E-05  6671   0.586E-03    0.214E-02
RMM:   7    -0.116316177815E+04   -0.38842E-04   -0.18812E-05  5998   0.505E-03    0.200E-02
RMM:   8    -0.116316189786E+04   -0.11971E-03   -0.11723E-04  6755   0.116E-02    0.186E-02
RMM:   9    -0.116316202312E+04   -0.12526E-03   -0.20421E-04  6881   0.134E-02    0.158E-02
RMM:  10    -0.116316212375E+04   -0.10063E-03   -0.18334E-04  6527   0.115E-02    0.143E-02
RMM:  11    -0.116316227331E+04   -0.14956E-03   -0.69732E-04  8032   0.256E-02    0.122E-02
RMM:  12    -0.116316237773E+04   -0.10442E-03   -0.47137E-04  7167   0.188E-02    0.101E-02
RMM:  13    -0.116316242862E+04   -0.50889E-04   -0.14394E-04  6616   0.102E-02
   9 F= -.11631624E+04 E0= -.11631611E+04  d E =-.261801E-02  mag=     5.9781
       N       E                     dE             d eps       ncg     rms          rms(c)
DAV:   1    -0.116316323171E+04   -0.85398E-03   -0.19530E-01 12480   0.482E-01    0.185E-01
RMM:   2    -0.116316397143E+04   -0.73972E-03   -0.45644E-03 12614   0.847E-02    0.101E-01
RMM:   3    -0.116316404002E+04   -0.68591E-04   -0.22863E-04  7824   0.289E-02    0.491E-02
RMM:   4    -0.116316404812E+04   -0.81030E-05   -0.70889E-05  7105   0.109E-02    0.235E-02
RMM:   5    -0.116316406292E+04   -0.14793E-04   -0.28494E-05  6902   0.703E-03    0.125E-02
RMM:   6    -0.116316407104E+04   -0.81216E-05   -0.11378E-05  6477   0.484E-03    0.106E-02
RMM:   7    -0.116316407922E+04   -0.81798E-05   -0.71780E-06  5389   0.375E-03    0.986E-03
RMM:   8    -0.116316409815E+04   -0.18928E-04   -0.15622E-05  5724   0.476E-03
  10 F= -.11631641E+04 E0= -.11631628E+04  d E =-.166953E-02  mag=     5.9780
       N       E                     dE             d eps       ncg     rms          rms(c)
DAV:   1    -0.116316447245E+04   -0.39323E-03   -0.45335E-01 12608   0.724E-01    0.301E-01
RMM:   2    -0.116316633846E+04   -0.18660E-02   -0.10328E-02 12772   0.126E-01    0.162E-01
RMM:   3    -0.116316653679E+04   -0.19833E-03   -0.56245E-04  9829   0.423E-02    0.740E-02
RMM:   4    -0.116316655075E+04   -0.13956E-04   -0.13289E-04  7331   0.154E-02    0.365E-02
RMM:   5    -0.116316658060E+04   -0.29847E-04   -0.60850E-05  7099   0.103E-02    0.200E-02
RMM:   6    -0.116316659439E+04   -0.13792E-04   -0.20879E-05  6863   0.691E-03    0.156E-02
RMM:   7    -0.116316660850E+04   -0.14115E-04   -0.13678E-05  6512   0.499E-03    0.138E-02
RMM:   8    -0.116316663939E+04   -0.30883E-04   -0.23552E-05  6421   0.604E-03
  11 F= -.11631666E+04 E0= -.11631653E+04  d E =-.254124E-02  mag=     5.9780
       N       E                     dE             d eps       ncg     rms          rms(c)
DAV:   1    -0.116316647132E+04    0.13718E-03   -0.58563E-01 12600   0.824E-01    0.339E-01
RMM:   2    -0.116316885888E+04   -0.23876E-02   -0.13327E-02 12761   0.143E-01    0.184E-01
RMM:   3    -0.116316911401E+04   -0.25514E-03   -0.75206E-04 10604   0.479E-02    0.840E-02
RMM:   4    -0.116316913526E+04   -0.21243E-04   -0.17173E-04  7496   0.174E-02    0.429E-02
RMM:   5    -0.116316917749E+04   -0.42235E-04   -0.79372E-05  7170   0.115E-02    0.267E-02
RMM:   6    -0.116316919797E+04   -0.20478E-04   -0.27416E-05  6927   0.790E-03    0.188E-02
RMM:   7    -0.116316921882E+04   -0.20850E-04   -0.18427E-05  6687   0.564E-03    0.169E-02
RMM:   8    -0.116316926256E+04   -0.43740E-04   -0.31259E-05  6610   0.699E-03
  12 F= -.11631693E+04 E0= -.11631679E+04  d E =-.262317E-02  mag=     5.9779
       N       E                     dE             d eps       ncg     rms          rms(c)
DAV:   1    -0.116316941934E+04   -0.20052E-03   -0.41097E-01 12528   0.697E-01    0.264E-01
RMM:   2    -0.116317098229E+04   -0.15629E-02   -0.94858E-03 12709   0.121E-01    0.145E-01
RMM:   3    -0.116317113672E+04   -0.15443E-03   -0.51836E-04  9539   0.405E-02    0.699E-02
RMM:   4    -0.116317116501E+04   -0.28291E-04   -0.13229E-04  7326   0.150E-02    0.372E-02
RMM:   5    -0.116317120937E+04   -0.44354E-04   -0.64492E-05  7106   0.102E-02    0.234E-02
RMM:   6    -0.116317123276E+04   -0.23397E-04   -0.24978E-05  6873   0.703E-03    0.185E-02
RMM:   7    -0.116317125630E+04   -0.23535E-04   -0.17247E-05  6530   0.541E-03    0.169E-02
RMM:   8    -0.116317131595E+04   -0.59654E-04   -0.47475E-05  6594   0.805E-03
  13 F= -.11631713E+04 E0= -.11631700E+04  d E =-.205339E-02  mag=     5.9779
       N       E                     dE             d eps       ncg     rms          rms(c)
DAV:   1    -0.116317166800E+04   -0.41170E-03   -0.26483E-01 12584   0.569E-01    0.177E-01
RMM:   2    -0.116317252617E+04   -0.85817E-03   -0.61937E-03 12672   0.973E-02    0.996E-02
RMM:   3    -0.116317259147E+04   -0.65293E-04   -0.30967E-04  8349   0.327E-02    0.531E-02
RMM:   4    -0.116317261568E+04   -0.24217E-04   -0.91315E-05  7187   0.123E-02    0.297E-02
RMM:   5    -0.116317265419E+04   -0.38508E-04   -0.48409E-05  6974   0.858E-03    0.190E-02
RMM:   6    -0.116317267398E+04   -0.19786E-04   -0.19612E-05  6732   0.587E-03    0.164E-02
RMM:   7    -0.116317269633E+04   -0.22352E-04   -0.14451E-05  6117   0.500E-03    0.153E-02
RMM:   8    -0.116317274860E+04   -0.52272E-04   -0.42591E-05  6303   0.731E-03
  14 F= -.11631727E+04 E0= -.11631714E+04  d E =-.143265E-02  mag=     5.9778
       N       E                     dE             d eps       ncg     rms          rms(c)
DAV:   1    -0.116315610214E+04    0.16594E-01   -0.41582E+00 12608   0.216E+00    0.966E-01
RMM:   2    -0.116317442226E+04   -0.18320E-01   -0.93914E-02 12762   0.382E-01    0.525E-01
RMM:   3    -0.116317652871E+04   -0.21064E-02   -0.55168E-03 13097   0.129E-01    0.224E-01
RMM:   4    -0.116317654638E+04   -0.17675E-04   -0.12601E-03 12445   0.430E-02    0.110E-01
RMM:   5    -0.116317666029E+04   -0.11391E-03   -0.40235E-04  9255   0.248E-02    0.541E-02
RMM:   6    -0.116317672213E+04   -0.61841E-04   -0.98759E-05  7330   0.145E-02    0.311E-02
RMM:   7    -0.116317679496E+04   -0.72825E-04   -0.70250E-05  7159   0.105E-02    0.283E-02
RMM:   8    -0.116317686533E+04   -0.70367E-04   -0.54181E-05  7061   0.936E-03
  15 F= -.11631769E+04 E0= -.11631756E+04  d E =-.411672E-02  mag=     5.9777
       N       E                     dE             d eps       ncg     rms          rms(c)
DAV:   1    -0.116317695187E+04   -0.15692E-03   -0.10108E-01 13072   0.350E-01    0.145E-01
RMM:   2    -0.116317740408E+04   -0.45221E-03   -0.24246E-03 12466   0.617E-02    0.805E-02
RMM:   3    -0.116317746701E+04   -0.62934E-04   -0.12530E-04  7378   0.226E-02    0.428E-02
RMM:   4    -0.116317752014E+04   -0.53128E-04   -0.67000E-05  7111   0.101E-02    0.269E-02
RMM:   5    -0.116317757586E+04   -0.55718E-04   -0.43185E-05  6875   0.689E-03    0.213E-02
RMM:   6    -0.116317760896E+04   -0.33102E-04   -0.20609E-05  6258   0.487E-03    0.191E-02
RMM:   7    -0.116317765308E+04   -0.44118E-04   -0.21989E-05  5616   0.537E-03    0.184E-02
RMM:   8    -0.116317775625E+04   -0.10318E-03   -0.10953E-04  6632   0.109E-02    0.157E-02
RMM:   9    -0.116317789262E+04   -0.13637E-03   -0.32356E-04  7311   0.175E-02    0.132E-02
RMM:  10    -0.116317799320E+04   -0.10058E-03   -0.29313E-04  6784   0.151E-02    0.118E-02
RMM:  11    -0.116317807708E+04   -0.83875E-04   -0.36060E-04  7251   0.172E-02
  16 F= -.11631781E+04 E0= -.11631768E+04  d E =-.121175E-02  mag=     5.9775
       N       E                     dE             d eps       ncg     rms          rms(c)
DAV:   1    -0.116317835079E+04   -0.35759E-03   -0.34838E-02 12920   0.210E-01    0.579E-02
RMM:   2    -0.116317846666E+04   -0.11587E-03   -0.84513E-04 11141   0.372E-02    0.331E-02
RMM:   3    -0.116317847602E+04   -0.93574E-05   -0.44161E-05  6845   0.138E-02    0.187E-02
RMM:   4    -0.116317848106E+04   -0.50482E-05   -0.17675E-05  6444   0.550E-03    0.119E-02
RMM:   5    -0.116317848769E+04   -0.66204E-05   -0.81283E-06  5096   0.362E-03    0.939E-03
RMM:   6    -0.116317849168E+04   -0.39934E-05   -0.36044E-06  4010   0.293E-03    0.751E-03
RMM:   7    -0.116317849563E+04   -0.39469E-05   -0.27143E-06  3454   0.254E-03    0.723E-03
RMM:   8    -0.116317850592E+04   -0.10290E-04   -0.10106E-05  4637   0.383E-03
  17 F= -.11631785E+04 E0= -.11631772E+04  d E =-.428839E-03  mag=     5.9775
       N       E                     dE             d eps       ncg     rms          rms(c)
DAV:   1    -0.116317867339E+04   -0.17776E-03   -0.14807E-02 12344   0.136E-01    0.387E-02
RMM:   2    -0.116317871855E+04   -0.45158E-04   -0.32615E-04  8262   0.236E-02    0.225E-02
RMM:   3    -0.116317872549E+04   -0.69426E-05   -0.26748E-05  6424   0.103E-02    0.126E-02
RMM:   4    -0.116317872942E+04   -0.39295E-05   -0.93032E-06  5764   0.430E-03    0.945E-03
RMM:   5    -0.116317873450E+04   -0.50758E-05   -0.56370E-06  4361   0.324E-03    0.713E-03
RMM:   6    -0.116317873804E+04   -0.35427E-05   -0.27218E-06  3297   0.244E-03    0.648E-03
RMM:   7    -0.116317874046E+04   -0.24255E-05   -0.15729E-06  2884   0.228E-03    0.625E-03
RMM:   8    -0.116317874938E+04   -0.89186E-05   -0.98079E-06  4529   0.390E-03
  18 F= -.11631787E+04 E0= -.11631774E+04  d E =-.243467E-03  mag=     5.9775
       N       E                     dE             d eps       ncg     rms          rms(c)
DAV:   1    -0.116317895299E+04   -0.21253E-03   -0.39043E-02 12160   0.220E-01    0.610E-02
RMM:   2    -0.116317906678E+04   -0.11379E-03   -0.90100E-04 11209   0.378E-02    0.343E-02
RMM:   3    -0.116317907497E+04   -0.81910E-05   -0.47664E-05  6730   0.145E-02    0.193E-02
RMM:   4    -0.116317907813E+04   -0.31605E-05   -0.16365E-05  6314   0.543E-03    0.120E-02
RMM:   5    -0.116317908219E+04   -0.40550E-05   -0.63044E-06  4888   0.343E-03    0.878E-03
RMM:   6    -0.116317908529E+04   -0.31004E-05   -0.38596E-06  3943   0.292E-03    0.623E-03
RMM:   7    -0.116317908820E+04   -0.29117E-05   -0.23643E-06  3158   0.239E-03    0.591E-03
RMM:   8    -0.116317909307E+04   -0.48716E-05   -0.46711E-06  3730   0.281E-03
  19 F= -.11631791E+04 E0= -.11631778E+04  d E =-.343690E-03  mag=     5.9774
       N       E                     dE             d eps       ncg     rms          rms(c)
DAV:   1    -0.116317924678E+04   -0.15858E-03   -0.18064E-01 12448   0.474E-01    0.122E-01
RMM:   2    -0.116317974804E+04   -0.50125E-03   -0.42574E-03 12716   0.810E-02    0.703E-02
RMM:   3    -0.116317976634E+04   -0.18300E-04   -0.19248E-04  7621   0.267E-02    0.396E-02
RMM:   4    -0.116317976584E+04    0.49465E-06   -0.52130E-05  7004   0.979E-03    0.209E-02
RMM:   5    -0.116317977274E+04   -0.68960E-05   -0.22826E-05  6771   0.653E-03    0.113E-02
RMM:   6    -0.116317977652E+04   -0.37766E-05   -0.83004E-06  6261   0.449E-03    0.804E-03
RMM:   7    -0.116317978012E+04   -0.36001E-05   -0.49140E-06  4983   0.337E-03    0.735E-03
RMM:   8    -0.116317978758E+04   -0.74590E-05   -0.79832E-06  5147   0.364E-03
  20 F= -.11631798E+04 E0= -.11631785E+04  d E =-.694503E-03  mag=     5.9773
       N       E                     dE             d eps       ncg     rms          rms(c)
DAV:   1    -0.116317942722E+04    0.35289E-03   -0.47377E-01 12608   0.767E-01    0.198E-01
RMM:   2    -0.116318072993E+04   -0.13027E-02   -0.11009E-02 12783   0.130E-01    0.112E-01
RMM:   3    -0.116318078317E+04   -0.53235E-04   -0.54972E-04  9460   0.430E-02    0.626E-02
RMM:   4    -0.116318077373E+04    0.94402E-05   -0.11768E-04  7249   0.147E-02    0.320E-02
RMM:   5    -0.116318078680E+04   -0.13067E-04   -0.55091E-05  7020   0.102E-02    0.136E-02
RMM:   6    -0.116318079434E+04   -0.75463E-05   -0.19391E-05  6838   0.677E-03    0.107E-02
RMM:   7    -0.116318080170E+04   -0.73612E-05   -0.12000E-05  6472   0.490E-03    0.965E-03
RMM:   8    -0.116318081582E+04   -0.14117E-04   -0.15720E-05  6165   0.520E-03
  21 F= -.11631808E+04 E0= -.11631795E+04  d E =-.102824E-02  mag=     5.9773
       N       E                     dE             d eps       ncg     rms          rms(c)
DAV:   1    -0.116318035851E+04    0.44320E-03   -0.46858E-01 12592   0.765E-01    0.191E-01
RMM:   2    -0.116318162778E+04   -0.12693E-02   -0.10948E-02 12738   0.129E-01    0.110E-01
RMM:   3    -0.116318167314E+04   -0.45360E-04   -0.53560E-04  9423   0.424E-02    0.622E-02
RMM:   4    -0.116318166687E+04    0.62652E-05   -0.11908E-04  7250   0.146E-02    0.326E-02
RMM:   5    -0.116318168416E+04   -0.17285E-04   -0.57686E-05  7035   0.103E-02    0.152E-02
RMM:   6    -0.116318169326E+04   -0.91019E-05   -0.20663E-05  6860   0.685E-03    0.120E-02
RMM:   7    -0.116318170299E+04   -0.97331E-05   -0.13665E-05  6541   0.514E-03    0.110E-02
RMM:   8    -0.116318172057E+04   -0.17573E-04   -0.16940E-05  6202   0.535E-03
  22 F= -.11631817E+04 E0= -.11631804E+04  d E =-.904747E-03  mag=     5.9771
