       N       E                     dE             d eps       ncg     rms          rms(c)
DAV:   1     0.120961224011E+05    0.12096E+05   -0.42692E+05 12320   0.132E+03
DAV:   2     0.695539132923E+03   -0.11401E+05   -0.10189E+05 12296   0.380E+02
DAV:   3    -0.136980178354E+04   -0.20653E+04   -0.19866E+04 13224   0.167E+02
DAV:   4    -0.150913793546E+04   -0.13934E+03   -0.13710E+03 16192   0.458E+01
DAV:   5    -0.151806430738E+04   -0.89264E+01   -0.88864E+01 22160   0.108E+01    0.180E+02
RMM:   6    -0.117281698934E+04    0.34525E+03   -0.16449E+03 12516   0.357E+01    0.123E+02
RMM:   7    -0.115605877533E+04    0.16758E+02   -0.60688E+01 12796   0.119E+01    0.733E+01
RMM:   8    -0.115920218837E+04   -0.31434E+01   -0.20254E+01 14066   0.494E+00    0.363E+01
RMM:   9    -0.116369901568E+04   -0.44968E+01   -0.71827E+00 12995   0.323E+00    0.109E+01
RMM:  10    -0.116486088111E+04   -0.11619E+01   -0.19023E+00 13876   0.145E+00    0.716E+00
RMM:  11    -0.116588480069E+04   -0.10239E+01   -0.11346E+00 14858   0.874E-01    0.483E+00
RMM:  12    -0.116660685749E+04   -0.72206E+00   -0.52768E-01 14729   0.673E-01    0.262E+00
RMM:  13    -0.116697849507E+04   -0.37164E+00   -0.35087E-01 13876   0.542E-01    0.138E+00
RMM:  14    -0.116706070388E+04   -0.82209E-01   -0.14986E-01 14507   0.355E-01    0.742E-01
RMM:  15    -0.116707460826E+04   -0.13904E-01   -0.49566E-02 15335   0.202E-01    0.600E-01
RMM:  16    -0.116707658706E+04   -0.19788E-02   -0.12396E-02 16132   0.931E-02    0.359E-01
RMM:  17    -0.116707730432E+04   -0.71726E-03   -0.62473E-03 15715   0.659E-02    0.169E-01
RMM:  18    -0.116707738905E+04   -0.84729E-04   -0.17961E-03 13514   0.323E-02    0.890E-02
RMM:  19    -0.116707748341E+04   -0.94357E-04   -0.10175E-03 10992   0.200E-02    0.398E-02
RMM:  20    -0.116707753759E+04   -0.54184E-04   -0.55683E-04  9926   0.162E-02
   1 F= -.11670775E+04 E0= -.11670775E+04  d E =-.116708E+04  mag=     9.9996
       N       E                     dE             d eps       ncg     rms          rms(c)
DAV:   1    -0.116015957925E+04    0.69179E+01   -0.58325E+02 14104   0.262E+01    0.154E+01
RMM:   2    -0.116820262157E+04   -0.80430E+01   -0.30892E+01 12362   0.667E+00    0.218E+01
RMM:   3    -0.116827558464E+04   -0.72963E-01   -0.17293E+00 12795   0.223E+00    0.110E+01
RMM:   4    -0.116807283266E+04    0.20275E+00   -0.75841E-01 14498   0.890E-01    0.635E+00
RMM:   5    -0.116793494162E+04    0.13789E+00   -0.35566E-01 12585   0.596E-01    0.320E+00
RMM:   6    -0.116794141299E+04   -0.64714E-02   -0.94778E-02 13959   0.350E-01    0.139E+00
RMM:   7    -0.116794058177E+04    0.83122E-03   -0.13439E-02 18648   0.100E-01    0.820E-01
RMM:   8    -0.116793899887E+04    0.15829E-02   -0.57590E-03 16142   0.673E-02    0.573E-01
RMM:   9    -0.116793886708E+04    0.13179E-03   -0.23947E-03 14629   0.444E-02    0.144E-01
RMM:  10    -0.116793889882E+04   -0.31737E-04   -0.46567E-04 12260   0.231E-02
   2 F= -.11679389E+04 E0= -.11679389E+04  d E =-.861361E+00  mag=    10.0000
       N       E                     dE             d eps       ncg     rms          rms(c)
DAV:   1    -0.116823077953E+04   -0.29191E+00   -0.74748E+01 13672   0.947E+00    0.590E+00
RMM:   2    -0.116847468880E+04   -0.24391E+00   -0.27910E+00 12288   0.214E+00    0.565E+00
RMM:   3    -0.116848523890E+04   -0.10550E-01   -0.16247E-01 13254   0.623E-01    0.370E+00
RMM:   4    -0.116846140785E+04    0.23831E-01   -0.76981E-02 13087   0.300E-01    0.193E+00
RMM:   5    -0.116845696946E+04    0.44384E-02   -0.35450E-02 12585   0.198E-01    0.811E-01
RMM:   6    -0.116845619688E+04    0.77258E-03   -0.59130E-03 13077   0.798E-02    0.391E-01
RMM:   7    -0.116845555998E+04    0.63690E-03   -0.12115E-03 11893   0.312E-02    0.189E-01
RMM:   8    -0.116845549544E+04    0.64535E-04   -0.47285E-04 10482   0.216E-02
   3 F= -.11684555E+04 E0= -.11684555E+04  d E =-.137796E+01  mag=    10.0000
       N       E                     dE             d eps       ncg     rms          rms(c)
DAV:   1    -0.116809744070E+04    0.35812E+00   -0.13310E+02 12904   0.123E+01    0.652E+00
RMM:   2    -0.116880207029E+04   -0.70463E+00   -0.37889E+00 12289   0.242E+00    0.585E+00
RMM:   3    -0.116887801423E+04   -0.75944E-01   -0.18329E-01 12582   0.767E-01    0.224E+00
RMM:   4    -0.116886155077E+04    0.16463E-01   -0.55225E-02 14231   0.243E-01    0.128E+00
RMM:   5    -0.116885210224E+04    0.94485E-02   -0.33710E-02 13761   0.186E-01    0.119E+00
RMM:   6    -0.116885239541E+04   -0.29316E-03   -0.11581E-02 14682   0.116E-01    0.374E-01
RMM:   7    -0.116885212519E+04    0.27022E-03   -0.15611E-03 14515   0.376E-02    0.253E-01
RMM:   8    -0.116885202441E+04    0.10077E-03   -0.91698E-04 12496   0.276E-02    0.816E-02
RMM:   9    -0.116885202693E+04   -0.25153E-05   -0.24715E-04  9013   0.175E-02
   4 F= -.11688520E+04 E0= -.11688520E+04  d E =-.396531E+00  mag=    10.0000
       N       E                     dE             d eps       ncg     rms          rms(c)
DAV:   1    -0.116884943840E+04    0.25860E-02   -0.10855E+00 14152   0.111E+00    0.582E-01
RMM:   2    -0.116885456483E+04   -0.51264E-02   -0.28929E-02 12275   0.208E-01    0.395E-01
RMM:   3    -0.116885516161E+04   -0.59678E-03   -0.14488E-03 12189   0.659E-02    0.183E-01
RMM:   4    -0.116885498212E+04    0.17949E-03   -0.62965E-04 10588   0.262E-02    0.849E-02
RMM:   5    -0.116885496141E+04    0.20708E-04   -0.13690E-04  8116   0.158E-02    0.843E-02
RMM:   6    -0.116885496507E+04   -0.36519E-05   -0.49559E-05  7335   0.965E-03    0.211E-02
RMM:   7    -0.116885496542E+04   -0.35598E-06   -0.18587E-05  7043   0.666E-03    0.181E-02
RMM:   8    -0.116885496635E+04   -0.92915E-06   -0.11995E-05  6824   0.467E-03
   5 F= -.11688550E+04 E0= -.11688550E+04  d E =-.399471E+00  mag=    10.0000
       N       E                     dE             d eps       ncg     rms          rms(c)
DAV:   1    -0.116882525770E+04    0.29708E-01   -0.56585E+01 12720   0.851E+00    0.253E+00
RMM:   2    -0.116896843830E+04   -0.14318E+00   -0.17168E+00 12293   0.164E+00    0.237E+00
RMM:   3    -0.116896637452E+04    0.20638E-02   -0.83842E-02 13196   0.481E-01    0.160E+00
RMM:   4    -0.116895844567E+04    0.79289E-02   -0.33472E-02 13623   0.191E-01    0.938E-01
RMM:   5    -0.116895507514E+04    0.33705E-02   -0.12062E-02 13598   0.114E-01    0.422E-01
RMM:   6    -0.116895510151E+04   -0.26369E-04   -0.11290E-03 13669   0.389E-02    0.144E-01
RMM:   7    -0.116895503869E+04    0.62822E-04   -0.44887E-04 11364   0.183E-02    0.919E-02
RMM:   8    -0.116895502571E+04    0.12978E-04   -0.27353E-04  9244   0.177E-02
   6 F= -.11689550E+04 E0= -.11689550E+04  d E =-.100059E+00  mag=    10.0000
       N       E                     dE             d eps       ncg     rms          rms(c)
DAV:   1    -0.116895502524E+04    0.13453E-04   -0.10430E+00 13904   0.116E+00    0.344E-01
RMM:   2    -0.116895766336E+04   -0.26381E-02   -0.31124E-02 12294   0.219E-01    0.314E-01
RMM:   3    -0.116895760238E+04    0.60973E-04   -0.13931E-03 12003   0.648E-02    0.205E-01
RMM:   4    -0.116895744434E+04    0.15805E-03   -0.55319E-04 10503   0.261E-02    0.112E-01
RMM:   5    -0.116895739511E+04    0.49222E-04   -0.16526E-04  8155   0.167E-02    0.621E-02
RMM:   6    -0.116895739699E+04   -0.18790E-05   -0.25197E-05  6879   0.882E-03    0.226E-02
RMM:   7    -0.116895739649E+04    0.50028E-06   -0.98184E-06  6294   0.401E-03    0.124E-02
RMM:   8    -0.116895739660E+04   -0.11020E-06   -0.54054E-06  6281   0.384E-03
   7 F= -.11689574E+04 E0= -.11689574E+04  d E =-.102430E+00  mag=    10.0000
       N       E                     dE             d eps       ncg     rms          rms(c)
DAV:   1    -0.116895620128E+04    0.11952E-02   -0.18079E+01 12720   0.495E+00    0.136E+00
RMM:   2    -0.116900009917E+04   -0.43898E-01   -0.49344E-01 12304   0.900E-01    0.124E+00
RMM:   3    -0.116899983644E+04    0.26272E-03   -0.24700E-02 12941   0.280E-01    0.817E-01
RMM:   4    -0.116899814180E+04    0.16946E-02   -0.93850E-03 13906   0.102E-01    0.428E-01
RMM:   5    -0.116899751147E+04    0.63033E-03   -0.30128E-03 13484   0.570E-02    0.180E-01
RMM:   6    -0.116899749940E+04    0.12069E-04   -0.33383E-04  9813   0.199E-02    0.666E-02
RMM:   7    -0.116899749535E+04    0.40536E-05   -0.14458E-04  8066   0.130E-02    0.397E-02
RMM:   8    -0.116899749791E+04   -0.25663E-05   -0.92918E-05  7439   0.117E-02
   8 F= -.11689975E+04 E0= -.11689975E+04  d E =-.401013E-01  mag=    10.0000
       N       E                     dE             d eps       ncg     rms          rms(c)
DAV:   1    -0.116899721690E+04    0.27844E-03   -0.63324E-01 13456   0.927E-01    0.254E-01
RMM:   2    -0.116899876457E+04   -0.15477E-02   -0.17503E-02 12313   0.169E-01    0.233E-01
RMM:   3    -0.116899875395E+04    0.10617E-04   -0.91036E-04 11704   0.527E-02    0.155E-01
RMM:   4    -0.116899869554E+04    0.58408E-04   -0.37208E-04  9792   0.201E-02    0.803E-02
RMM:   5    -0.116899867176E+04    0.23782E-04   -0.98104E-05  7728   0.132E-02    0.404E-02
RMM:   6    -0.116899867390E+04   -0.21386E-05   -0.26018E-05  6958   0.837E-03    0.173E-02
RMM:   7    -0.116899867501E+04   -0.11073E-05   -0.14626E-05  6568   0.504E-03    0.935E-03
RMM:   8    -0.116899867568E+04   -0.67025E-06   -0.93463E-06  6489   0.490E-03
   9 F= -.11689987E+04 E0= -.11689987E+04  d E =-.412791E-01  mag=    10.0000
       N       E                     dE             d eps       ncg     rms          rms(c)
DAV:   1    -0.116900324244E+04   -0.45674E-02   -0.12359E+01 12768   0.413E+00    0.102E+00
RMM:   2    -0.116903179949E+04   -0.28557E-01   -0.31643E-01 12353   0.713E-01    0.711E-01
RMM:   3    -0.116903199759E+04   -0.19810E-03   -0.16322E-02 12800   0.238E-01    0.438E-01
RMM:   4    -0.116903098475E+04    0.10128E-02   -0.55308E-03 14929   0.782E-02    0.212E-01
RMM:   5    -0.116903088387E+04    0.10088E-03   -0.13715E-03 14064   0.364E-02    0.939E-02
RMM:   6    -0.116903089080E+04   -0.69311E-05   -0.25733E-04  9128   0.159E-02    0.442E-02
RMM:   7    -0.116903089878E+04   -0.79829E-05   -0.12338E-04  7709   0.124E-02    0.256E-02
RMM:   8    -0.116903090611E+04   -0.73287E-05   -0.82745E-05  7337   0.952E-03
  10 F= -.11690309E+04 E0= -.11690309E+04  d E =-.322304E-01  mag=    10.0000
       N       E                     dE             d eps       ncg     rms          rms(c)
DAV:   1    -0.116901857350E+04    0.12325E-01   -0.95229E+00 12680   0.363E+00    0.892E-01
RMM:   2    -0.116904061127E+04   -0.22038E-01   -0.24413E-01 12358   0.626E-01    0.622E-01
RMM:   3    -0.116904075492E+04   -0.14365E-03   -0.12749E-02 12819   0.211E-01    0.383E-01
RMM:   4    -0.116903997976E+04    0.77516E-03   -0.43412E-03 15086   0.690E-02    0.185E-01
RMM:   5    -0.116903990755E+04    0.72207E-04   -0.10865E-03 13760   0.320E-02    0.839E-02
RMM:   6    -0.116903991378E+04   -0.62310E-05   -0.20746E-04  8555   0.146E-02    0.386E-02
RMM:   7    -0.116903992082E+04   -0.70339E-05   -0.10262E-04  7544   0.120E-02    0.224E-02
RMM:   8    -0.116903992750E+04   -0.66803E-05   -0.73935E-05  7325   0.910E-03
  11 F= -.11690399E+04 E0= -.11690399E+04  d E =-.412518E-01  mag=    10.0000
       N       E                     dE             d eps       ncg     rms          rms(c)
DAV:   1    -0.116903147566E+04    0.84452E-02   -0.15547E+01 12592   0.462E+00    0.983E-01
RMM:   2    -0.116906568442E+04   -0.34209E-01   -0.40257E-01 12326   0.806E-01    0.728E-01
RMM:   3    -0.116906554781E+04    0.13660E-03   -0.20644E-02 12917   0.263E-01    0.480E-01
RMM:   4    -0.116906456644E+04    0.98137E-03   -0.55794E-03 16406   0.801E-02    0.293E-01
RMM:   5    -0.116906428370E+04    0.28274E-03   -0.20882E-03 14695   0.420E-02    0.183E-01
RMM:   6    -0.116906430008E+04   -0.16386E-04   -0.42214E-04 11209   0.221E-02    0.561E-02
RMM:   7    -0.116906431032E+04   -0.10236E-04   -0.17100E-04  8223   0.133E-02    0.295E-02
RMM:   8    -0.116906431694E+04   -0.66222E-05   -0.11410E-04  7623   0.110E-02
  12 F= -.11690643E+04 E0= -.11690643E+04  d E =-.243894E-01  mag=    10.0000
       N       E                     dE             d eps       ncg     rms          rms(c)
DAV:   1    -0.116905964283E+04    0.46675E-02   -0.36946E+00 12880   0.225E+00    0.478E-01
RMM:   2    -0.116906781445E+04   -0.81716E-02   -0.96081E-02 12340   0.393E-01    0.355E-01
RMM:   3    -0.116906777249E+04    0.41963E-04   -0.50075E-03 12800   0.129E-01    0.235E-01
RMM:   4    -0.116906754485E+04    0.22763E-03   -0.13980E-03 14839   0.396E-02    0.144E-01
RMM:   5    -0.116906747747E+04    0.67388E-04   -0.52528E-04 11465   0.223E-02    0.893E-02
RMM:   6    -0.116906748133E+04   -0.38592E-05   -0.10533E-04  7396   0.130E-02    0.333E-02
RMM:   7    -0.116906748452E+04   -0.31932E-05   -0.49888E-05  7131   0.950E-03    0.161E-02
RMM:   8    -0.116906748716E+04   -0.26390E-05   -0.33348E-05  6950   0.736E-03
  13 F= -.11690675E+04 E0= -.11690675E+04  d E =-.275597E-01  mag=    10.0000
       N       E                     dE             d eps       ncg     rms          rms(c)
DAV:   1    -0.116906311574E+04    0.43688E-02   -0.92931E+00 12728   0.354E+00    0.757E-01
RMM:   2    -0.116908381525E+04   -0.20700E-01   -0.23808E-01 12312   0.616E-01    0.559E-01
RMM:   3    -0.116908360596E+04    0.20929E-03   -0.11766E-02 12733   0.200E-01    0.364E-01
RMM:   4    -0.116908292504E+04    0.68092E-03   -0.37269E-03 15246   0.639E-02    0.190E-01
RMM:   5    -0.116908282111E+04    0.10392E-03   -0.11622E-03 13594   0.324E-02    0.928E-02
RMM:   6    -0.116908282232E+04   -0.12100E-05   -0.17961E-04  8257   0.146E-02    0.409E-02
RMM:   7    -0.116908282677E+04   -0.44461E-05   -0.83158E-05  7365   0.114E-02    0.223E-02
RMM:   8    -0.116908283151E+04   -0.47395E-05   -0.63017E-05  7181   0.893E-03
  14 F= -.11690828E+04 E0= -.11690828E+04  d E =-.153444E-01  mag=    10.0000
       N       E                     dE             d eps       ncg     rms          rms(c)
DAV:   1    -0.116908030449E+04    0.25223E-02   -0.20794E+00 12992   0.168E+00    0.356E-01
RMM:   2    -0.116908495516E+04   -0.46507E-02   -0.53436E-02 12321   0.292E-01    0.264E-01
RMM:   3    -0.116908490869E+04    0.46470E-04   -0.27347E-03 12577   0.953E-02    0.173E-01
RMM:   4    -0.116908475731E+04    0.15138E-03   -0.88203E-04 12551   0.311E-02    0.916E-02
RMM:   5    -0.116908472866E+04    0.28656E-04   -0.22667E-04  8845   0.185E-02    0.576E-02
RMM:   6    -0.116908473374E+04   -0.50835E-05   -0.61530E-05  7169   0.118E-02    0.233E-02
RMM:   7    -0.116908473699E+04   -0.32463E-05   -0.36995E-05  6980   0.785E-03    0.143E-02
RMM:   8    -0.116908473878E+04   -0.17906E-05   -0.22518E-05  6747   0.732E-03
  15 F= -.11690847E+04 E0= -.11690847E+04  d E =-.172516E-01  mag=    10.0000
       N       E                     dE             d eps       ncg     rms          rms(c)
DAV:   1    -0.116907777108E+04    0.69659E-02   -0.80512E+00 12848   0.329E+00    0.751E-01
RMM:   2    -0.116909546869E+04   -0.17698E-01   -0.19965E-01 12332   0.559E-01    0.576E-01
RMM:   3    -0.116909534853E+04    0.12017E-03   -0.10190E-02 12551   0.188E-01    0.366E-01
RMM:   4    -0.116909483897E+04    0.50955E-03   -0.35630E-03 15019   0.620E-02    0.200E-01
RMM:   5    -0.116909473959E+04    0.99380E-04   -0.94868E-04 13129   0.291E-02    0.103E-01
RMM:   6    -0.116909474121E+04   -0.16160E-05   -0.14729E-04  7829   0.132E-02    0.329E-02
RMM:   7    -0.116909474545E+04   -0.42438E-05   -0.76165E-05  7351   0.111E-02    0.197E-02
RMM:   8    -0.116909475002E+04   -0.45700E-05   -0.57553E-05  7154   0.821E-03
  16 F= -.11690948E+04 E0= -.11690948E+04  d E =-.100112E-01  mag=    10.0000
       N       E                     dE             d eps       ncg     rms          rms(c)
DAV:   1    -0.116909392768E+04    0.81777E-03   -0.64240E-01 13360   0.930E-01    0.211E-01
RMM:   2    -0.116909536806E+04   -0.14404E-02   -0.16216E-02 12412   0.158E-01    0.162E-01
RMM:   3    -0.116909534854E+04    0.19514E-04   -0.83314E-04 11322   0.523E-02    0.104E-01
RMM:   4    -0.116909530501E+04    0.43529E-04   -0.27575E-04  8617   0.183E-02    0.573E-02
RMM:   5    -0.116909529876E+04    0.62557E-05   -0.73849E-05  7159   0.120E-02    0.446E-02
RMM:   6    -0.116909530123E+04   -0.24714E-05   -0.28358E-05  6918   0.821E-03    0.139E-02
RMM:   7    -0.116909530277E+04   -0.15413E-05   -0.17263E-05  6617   0.562E-03    0.114E-02
RMM:   8    -0.116909530380E+04   -0.10282E-05   -0.11200E-05  6349   0.509E-03
  17 F= -.11690953E+04 E0= -.11690953E+04  d E =-.105650E-01  mag=    10.0000
       N       E                     dE             d eps       ncg     rms          rms(c)
DAV:   1    -0.116908537808E+04    0.99247E-02   -0.87046E+00 12752   0.341E+00    0.715E-01
RMM:   2    -0.116910481067E+04   -0.19433E-01   -0.21232E-01 12322   0.575E-01    0.512E-01
RMM:   3    -0.116910480003E+04    0.10639E-04   -0.10600E-02 12475   0.190E-01    0.322E-01
RMM:   4    -0.116910429405E+04    0.50598E-03   -0.31007E-03 15649   0.578E-02    0.184E-01
RMM:   5    -0.116910417967E+04    0.11438E-03   -0.10685E-03 13051   0.304E-02    0.149E-01
RMM:   6    -0.116910417980E+04   -0.13302E-06   -0.20370E-04  8678   0.163E-02    0.405E-02
RMM:   7    -0.116910418387E+04   -0.40747E-05   -0.66867E-05  7368   0.111E-02    0.209E-02
RMM:   8    -0.116910418880E+04   -0.49236E-05   -0.64322E-05  7216   0.844E-03
  18 F= -.11691042E+04 E0= -.11691042E+04  d E =-.888500E-02  mag=    10.0000
       N       E                     dE             d eps       ncg     rms          rms(c)
DAV:   1    -0.116910238592E+04    0.17980E-02   -0.11494E+00 12928   0.124E+00    0.259E-01
RMM:   2    -0.116910499082E+04   -0.26049E-02   -0.28429E-02 12390   0.210E-01    0.185E-01
RMM:   3    -0.116910497963E+04    0.11189E-04   -0.14485E-03 12199   0.690E-02    0.118E-01
RMM:   4    -0.116910491022E+04    0.69405E-04   -0.40578E-04  9900   0.216E-02    0.670E-02
RMM:   5    -0.116910489527E+04    0.14953E-04   -0.13222E-04  7519   0.150E-02    0.639E-02
RMM:   6    -0.116910489828E+04   -0.30098E-05   -0.47887E-05  7025   0.110E-02    0.225E-02
RMM:   7    -0.116910490076E+04   -0.24788E-05   -0.26599E-05  6861   0.679E-03    0.132E-02
RMM:   8    -0.116910490211E+04   -0.13500E-05   -0.16177E-05  6623   0.631E-03
  19 F= -.11691049E+04 E0= -.11691049E+04  d E =-.959831E-02  mag=    10.0000
       N       E                     dE             d eps       ncg     rms          rms(c)
DAV:   1    -0.116909904094E+04    0.58598E-02   -0.53254E+00 12720   0.265E+00    0.540E-01
RMM:   2    -0.116911063078E+04   -0.11590E-01   -0.13064E-01 12326   0.451E-01    0.397E-01
RMM:   3    -0.116911052834E+04    0.10243E-03   -0.64811E-03 12502   0.146E-01    0.249E-01
RMM:   4    -0.116911009291E+04    0.43543E-03   -0.21272E-03 13913   0.471E-02    0.134E-01
RMM:   5    -0.116911002712E+04    0.65796E-04   -0.57239E-04 11510   0.243E-02    0.618E-02
RMM:   6    -0.116911003129E+04   -0.41669E-05   -0.92511E-05  7387   0.122E-02    0.298E-02
RMM:   7    -0.116911003519E+04   -0.39007E-05   -0.53566E-05  7247   0.895E-03    0.197E-02
RMM:   8    -0.116911003787E+04   -0.26845E-05   -0.35301E-05  7001   0.753E-03
  20 F= -.11691100E+04 E0= -.11691100E+04  d E =-.513576E-02  mag=    10.0000
       N       E                     dE             d eps       ncg     rms          rms(c)
DAV:   1    -0.116910999901E+04    0.36178E-04   -0.36014E-02 13456   0.218E-01    0.443E-02
RMM:   2    -0.116911008420E+04   -0.85189E-04   -0.95336E-04 11632   0.385E-02    0.326E-02
RMM:   3    -0.116911008206E+04    0.21366E-05   -0.46176E-05  7007   0.124E-02    0.207E-02
RMM:   4    -0.116911008010E+04    0.19656E-05   -0.22794E-05  6767   0.594E-03    0.132E-02
RMM:   5    -0.116911008034E+04   -0.24399E-06   -0.88379E-06  5799   0.419E-03    0.112E-02
RMM:   6    -0.116911008087E+04   -0.52954E-06   -0.59468E-06  4664   0.325E-03    0.280E-03
RMM:   7    -0.116911008114E+04   -0.26685E-06   -0.31025E-06  3875   0.289E-03    0.254E-03
RMM:   8    -0.116911008131E+04   -0.17509E-06   -0.21453E-06  2993   0.246E-03
  21 F= -.11691101E+04 E0= -.11691101E+04  d E =-.517920E-02  mag=    10.0000
       N       E                     dE             d eps       ncg     rms          rms(c)
DAV:   1    -0.116910756450E+04    0.25166E-02   -0.28045E+00 12784   0.195E+00    0.411E-01
RMM:   2    -0.116911384197E+04   -0.62775E-02   -0.69719E-02 12319   0.333E-01    0.287E-01
RMM:   3    -0.116911383353E+04    0.84372E-05   -0.34641E-03 12421   0.109E-01    0.181E-01
RMM:   4    -0.116911363654E+04    0.19699E-03   -0.10251E-03 12958   0.342E-02    0.975E-02
RMM:   5    -0.116911361099E+04    0.25554E-04   -0.28100E-04  9118   0.194E-02    0.458E-02
RMM:   6    -0.116911361565E+04   -0.46614E-05   -0.59172E-05  7171   0.115E-02    0.196E-02
RMM:   7    -0.116911361888E+04   -0.32319E-05   -0.37059E-05  6968   0.793E-03    0.121E-02
RMM:   8    -0.116911362084E+04   -0.19567E-05   -0.22561E-05  6685   0.687E-03
  22 F= -.11691136E+04 E0= -.11691136E+04  d E =-.353953E-02  mag=    10.0000
       N       E                     dE             d eps       ncg     rms          rms(c)
DAV:   1    -0.116911308965E+04    0.52923E-03   -0.38064E-01 12784   0.721E-01    0.151E-01
RMM:   2    -0.116911395876E+04   -0.86911E-03   -0.96345E-03 12372   0.124E-01    0.106E-01
RMM:   3    -0.116911395382E+04    0.49439E-05   -0.46897E-04  9695   0.403E-02    0.677E-02
RMM:   4    -0.116911392692E+04    0.26896E-04   -0.13339E-04  7224   0.136E-02    0.360E-02
RMM:   5    -0.116911392562E+04    0.12970E-05   -0.47085E-05  7006   0.931E-03    0.267E-02
RMM:   6    -0.116911392755E+04   -0.19302E-05   -0.19428E-05  6771   0.656E-03    0.119E-02
RMM:   7    -0.116911392870E+04   -0.11474E-05   -0.11631E-05  6337   0.467E-03    0.782E-03
RMM:   8    -0.116911392938E+04   -0.67650E-06   -0.73024E-06  5644   0.407E-03
  23 F= -.11691139E+04 E0= -.11691139E+04  d E =-.384807E-02  mag=    10.0000
       N       E                     dE             d eps       ncg     rms          rms(c)
DAV:   1    -0.116911088997E+04    0.30387E-02   -0.25894E+00 12792   0.190E+00    0.379E-01
RMM:   2    -0.116911657021E+04   -0.56802E-02   -0.67093E-02 12297   0.327E-01    0.286E-01
RMM:   3    -0.116911646478E+04    0.10544E-03   -0.32084E-03 12441   0.105E-01    0.185E-01
RMM:   4    -0.116911627666E+04    0.18812E-03   -0.11525E-03 12844   0.351E-02    0.100E-01
RMM:   5    -0.116911623540E+04    0.41263E-04   -0.22608E-04  8666   0.185E-02    0.411E-02
RMM:   6    -0.116911624135E+04   -0.59550E-05   -0.62803E-05  7175   0.116E-02    0.212E-02
RMM:   7    -0.116911624493E+04   -0.35812E-05   -0.39908E-05  7043   0.839E-03    0.180E-02
RMM:   8    -0.116911624693E+04   -0.19965E-05   -0.22095E-05  6660   0.657E-03
  24 F= -.11691162E+04 E0= -.11691162E+04  d E =-.231755E-02  mag=    10.0000
       N       E                     dE             d eps       ncg     rms          rms(c)
DAV:   1    -0.116911623782E+04    0.71162E-05   -0.86251E-03 13704   0.110E-01    0.219E-02
RMM:   2    -0.116911625692E+04   -0.19105E-04   -0.22710E-04  7664   0.205E-02    0.191E-02
RMM:   3    -0.116911625918E+04   -0.22630E-05   -0.25669E-05  6712   0.914E-03    0.113E-02
RMM:   4    -0.116911625952E+04   -0.33858E-06   -0.10439E-05  6309   0.431E-03    0.107E-02
RMM:   5    -0.116911625966E+04   -0.13584E-06   -0.52380E-06  4850   0.354E-03    0.618E-03
RMM:   6    -0.116911625987E+04   -0.21356E-06   -0.31043E-06  3664   0.262E-03    0.230E-03
RMM:   7    -0.116911626005E+04   -0.17577E-06   -0.19917E-06  3239   0.268E-03    0.134E-03
RMM:   8    -0.116911626015E+04   -0.10399E-06   -0.11294E-06  2378   0.217E-03
  25 F= -.11691163E+04 E0= -.11691163E+04  d E =-.233077E-02  mag=    10.0000
       N       E                     dE             d eps       ncg     rms          rms(c)
DAV:   1    -0.116911467583E+04    0.15842E-02   -0.13146E+00 12680   0.135E+00    0.283E-01
RMM:   2    -0.116911746453E+04   -0.27887E-02   -0.33838E-02 12298   0.232E-01    0.232E-01
RMM:   3    -0.116911739318E+04    0.71344E-04   -0.16167E-03 12188   0.748E-02    0.152E-01
RMM:   4    -0.116911729245E+04    0.10073E-03   -0.59229E-04 11052   0.259E-02    0.880E-02
RMM:   5    -0.116911725527E+04    0.37173E-04   -0.12700E-04  7848   0.159E-02    0.543E-02
RMM:   6    -0.116911726003E+04   -0.47537E-05   -0.38954E-05  7034   0.987E-03    0.172E-02
RMM:   7    -0.116911726192E+04   -0.18927E-05   -0.21547E-05  6764   0.644E-03    0.124E-02
RMM:   8    -0.116911726304E+04   -0.11180E-05   -0.12911E-05  6411   0.566E-03
  26 F= -.11691173E+04 E0= -.11691173E+04  d E =-.100289E-02  mag=    10.0000
       N       E                     dE             d eps       ncg     rms          rms(c)
DAV:   1    -0.116911724904E+04    0.12886E-04   -0.18474E-02 13136   0.160E-01    0.340E-02
RMM:   2    -0.116911728442E+04   -0.35388E-04   -0.43766E-04  9109   0.279E-02    0.292E-02
RMM:   3    -0.116911728527E+04   -0.84550E-06   -0.26178E-05  6742   0.102E-02    0.171E-02
RMM:   4    -0.116911728433E+04    0.93838E-06   -0.77281E-06  6197   0.399E-03    0.126E-02
RMM:   5    -0.116911728372E+04    0.61204E-06   -0.17368E-06  4224   0.256E-03    0.371E-03
RMM:   6    -0.116911728376E+04   -0.37980E-07   -0.55121E-07  2145   0.186E-03    0.119E-03
RMM:   7    -0.116911728377E+04   -0.86438E-08   -0.11120E-07  1388   0.175E-03    0.711E-04
RMM:   8    -0.116911728376E+04    0.19209E-08   -0.16071E-08  1123   0.168E-03
  27 F= -.11691173E+04 E0= -.11691173E+04  d E =-.102361E-02  mag=    10.0000
