       N       E                     dE             d eps       ncg     rms          rms(c)
DAV:   1    -0.116912524827E+04   -0.11691E+04   -0.88762E-06  7648   0.899E-03    0.212E-02
RMM:   2    -0.116912524775E+04    0.52397E-06   -0.88665E-06  5674   0.472E-03    0.333E-02
RMM:   3    -0.116912524790E+04   -0.15472E-06   -0.31255E-06  4136   0.278E-03    0.261E-03
RMM:   4    -0.116912524795E+04   -0.47658E-07   -0.13296E-06  2906   0.241E-03    0.183E-03
RMM:   5    -0.116912524804E+04   -0.86337E-07   -0.90775E-07  2292   0.199E-03    0.416E-03
RMM:   6    -0.116912524802E+04    0.13533E-07   -0.42085E-07  1799   0.196E-03    0.819E-04
RMM:   7    -0.116912524802E+04    0.22410E-08   -0.83188E-08  1379   0.177E-03    0.357E-04
RMM:   8    -0.116912524802E+04    0.13824E-08   -0.47118E-08  1114   0.177E-03
   1 F= -.11691252E+04 E0= -.11691252E+04  d E =-.116913E+04  mag=    10.0000
       N       E                     dE             d eps       ncg     rms          rms(c)
DAV:   1    -0.116912529590E+04   -0.47881E-04   -0.11614E-01 12288   0.398E-01    0.109E-01
RMM:   2    -0.116912547904E+04   -0.18314E-03   -0.35997E-03 12252   0.776E-02    0.983E-02
RMM:   3    -0.116912544628E+04    0.32760E-04   -0.13348E-04  7319   0.222E-02    0.658E-02
RMM:   4    -0.116912541435E+04    0.31933E-04   -0.79109E-05  7097   0.113E-02    0.384E-02
RMM:   5    -0.116912540566E+04    0.86944E-05   -0.43183E-05  6897   0.866E-03    0.484E-02
RMM:   6    -0.116912540616E+04   -0.50817E-06   -0.15619E-05  6063   0.609E-03    0.122E-02
RMM:   7    -0.116912540643E+04   -0.26968E-06   -0.54999E-06  5139   0.332E-03    0.108E-02
RMM:   8    -0.116912540669E+04   -0.26042E-06   -0.31373E-06  4794   0.311E-03
   2 F= -.11691254E+04 E0= -.11691254E+04  d E =-.158673E-03  mag=    10.0000
       N       E                     dE             d eps       ncg     rms          rms(c)
DAV:   1    -0.116912570349E+04   -0.29706E-03   -0.23122E-02 12352   0.174E-01    0.571E-02
RMM:   2    -0.116912570814E+04   -0.46492E-05   -0.83427E-04 11285   0.368E-02    0.585E-02
RMM:   3    -0.116912569480E+04    0.13339E-04   -0.33036E-05  6479   0.102E-02    0.394E-02
RMM:   4    -0.116912568081E+04    0.13991E-04   -0.27901E-05  6256   0.648E-03    0.207E-02
RMM:   5    -0.116912567745E+04    0.33637E-05   -0.13110E-05  5953   0.492E-03    0.238E-02
RMM:   6    -0.116912567758E+04   -0.12547E-06   -0.41454E-06  4638   0.339E-03    0.724E-03
RMM:   7    -0.116912567753E+04    0.41720E-07   -0.10178E-06  3092   0.215E-03    0.466E-03
RMM:   8    -0.116912567755E+04   -0.13111E-07   -0.60154E-07  2765   0.203E-03
   3 F= -.11691257E+04 E0= -.11691257E+04  d E =-.270852E-03  mag=    10.0000
