       N       E                     dE             d eps       ncg     rms          rms(c)
DAV:   1     0.120793610833E+05    0.12079E+05   -0.42683E+05  6160   0.132E+03
DAV:   2     0.685718266397E+03   -0.11394E+05   -0.10178E+05  6160   0.379E+02
DAV:   3    -0.137056053761E+04   -0.20563E+04   -0.19808E+04  6592   0.167E+02
DAV:   4    -0.151009754634E+04   -0.13954E+03   -0.13727E+03  8088   0.459E+01
DAV:   5    -0.151919068716E+04   -0.90931E+01   -0.90526E+01 11128   0.109E+01    0.180E+02
RMM:   6    -0.117343447348E+04    0.34576E+03   -0.16389E+03  6255   0.356E+01    0.122E+02
RMM:   7    -0.115709535984E+04    0.16339E+02   -0.60486E+01  6394   0.117E+01    0.738E+01
RMM:   8    -0.116031520813E+04   -0.32198E+01   -0.19230E+01  7048   0.483E+00    0.363E+01
RMM:   9    -0.116493733710E+04   -0.46221E+01   -0.76201E+00  6520   0.327E+00    0.112E+01
RMM:  10    -0.116604845067E+04   -0.11111E+01   -0.20273E+00  6941   0.152E+00    0.743E+00
RMM:  11    -0.116726884072E+04   -0.12204E+01   -0.14638E+00  6919   0.978E-01    0.409E+00
RMM:  12    -0.116799181738E+04   -0.72298E+00   -0.65707E-01  6837   0.809E-01    0.213E+00
RMM:  13    -0.116818438201E+04   -0.19256E+00   -0.25194E-01  7524   0.457E-01    0.130E+00
RMM:  14    -0.116823549724E+04   -0.51115E-01   -0.10933E-01  7310   0.292E-01    0.776E-01
RMM:  15    -0.116824443062E+04   -0.89334E-02   -0.32926E-02  7713   0.168E-01    0.633E-01
RMM:  16    -0.116824699355E+04   -0.25629E-02   -0.15857E-02  8021   0.101E-01    0.308E-01
RMM:  17    -0.116824681163E+04    0.18192E-03   -0.49616E-03  6843   0.650E-02    0.125E-01
RMM:  18    -0.116824697050E+04   -0.15887E-03   -0.21678E-03  6558   0.287E-02    0.575E-02
RMM:  19    -0.116824705581E+04   -0.85312E-04   -0.93587E-04  5191   0.206E-02
   1 F= -.11682471E+04 E0= -.11682471E+04  d E =-.116825E+04  mag=    10.0015
       N       E                     dE             d eps       ncg     rms          rms(c)
DAV:   1    -0.115452403033E+04    0.13723E+02   -0.30899E+02  7472   0.158E+01    0.153E+01
RMM:   2    -0.116899402892E+04   -0.14470E+02   -0.22602E+01  6490   0.491E+00    0.259E+01
RMM:   3    -0.116913878149E+04   -0.14475E+00   -0.13420E+00  6377   0.182E+00    0.798E+00
RMM:   4    -0.116910254172E+04    0.36240E-01   -0.85399E-01  6728   0.905E-01    0.218E+00
RMM:   5    -0.116909235580E+04    0.10186E-01   -0.92769E-02  6932   0.305E-01    0.231E+00
RMM:   6    -0.116908917799E+04    0.31778E-02   -0.31275E-02  6880   0.158E-01    0.120E+00
RMM:   7    -0.116909010747E+04   -0.92948E-03   -0.12733E-02  6788   0.105E-01    0.812E-01
RMM:   8    -0.116909020432E+04   -0.96852E-04   -0.15636E-03  6855   0.379E-02    0.439E-01
RMM:   9    -0.116908986982E+04    0.33450E-03   -0.15741E-03  5747   0.329E-02    0.209E-01
RMM:  10    -0.116908986128E+04    0.85329E-05   -0.22588E-04  4228   0.187E-02
   2 F= -.11690899E+04 E0= -.11690899E+04  d E =-.842805E+00  mag=    10.0001
       N       E                     dE             d eps       ncg     rms          rms(c)
DAV:   1    -0.116906768474E+04    0.22185E-01   -0.26622E+00  6952   0.142E+00    0.144E+00
RMM:   2    -0.116909306860E+04   -0.25384E-01   -0.60300E-02  6107   0.279E-01    0.853E-01
RMM:   3    -0.116909787672E+04   -0.48081E-02   -0.39827E-03  6007   0.108E-01    0.433E-01
RMM:   4    -0.116909754833E+04    0.32840E-03   -0.20227E-03  5576   0.437E-02    0.141E-01
RMM:   5    -0.116909761009E+04   -0.61760E-04   -0.28860E-04  4271   0.218E-02    0.747E-02
RMM:   6    -0.116909761827E+04   -0.81887E-05   -0.41201E-05  3722   0.958E-03    0.328E-02
RMM:   7    -0.116909761425E+04    0.40275E-05   -0.28989E-05  3599   0.633E-03    0.185E-02
RMM:   8    -0.116909761517E+04   -0.92032E-06   -0.92116E-06  3349   0.466E-03
   3 F= -.11690976E+04 E0= -.11690976E+04  d E =-.850559E+00  mag=    10.0000
       N       E                     dE             d eps       ncg     rms          rms(c)
DAV:   1    -0.116892924544E+04    0.16837E+00   -0.10586E+02  6480   0.108E+01    0.487E+00
RMM:   2    -0.116928692449E+04   -0.35768E+00   -0.31156E+00  6156   0.218E+00    0.391E+00
RMM:   3    -0.116931818808E+04   -0.31264E-01   -0.17225E-01  6668   0.626E-01    0.188E+00
RMM:   4    -0.116930375442E+04    0.14434E-01   -0.30102E-02  7069   0.192E-01    0.129E+00
RMM:   5    -0.116929527877E+04    0.84757E-02   -0.33441E-02  6194   0.170E-01    0.393E-01
RMM:   6    -0.116929535613E+04   -0.77360E-04   -0.33689E-03  6517   0.845E-02    0.260E-01
RMM:   7    -0.116929524241E+04    0.11372E-03   -0.82203E-04  6580   0.233E-02    0.963E-02
RMM:   8    -0.116929521935E+04    0.23064E-04   -0.36731E-04  5093   0.184E-02
   4 F= -.11692952E+04 E0= -.11692952E+04  d E =-.197604E+00  mag=    10.0000
       N       E                     dE             d eps       ncg     rms          rms(c)
DAV:   1    -0.116929430631E+04    0.93610E-03   -0.92843E-01  6968   0.101E+00    0.479E-01
RMM:   2    -0.116929727943E+04   -0.29731E-02   -0.25605E-02  6084   0.199E-01    0.382E-01
RMM:   3    -0.116929753593E+04   -0.25649E-03   -0.13090E-03  5773   0.573E-02    0.178E-01
RMM:   4    -0.116929740388E+04    0.13205E-03   -0.20850E-04  3925   0.189E-02    0.110E-01
RMM:   5    -0.116929734424E+04    0.59635E-04   -0.29305E-04  4281   0.174E-02    0.393E-02
RMM:   6    -0.116929734385E+04    0.39082E-06   -0.25801E-05  3432   0.921E-03    0.243E-02
RMM:   7    -0.116929734364E+04    0.20667E-06   -0.78874E-06  2911   0.333E-03    0.887E-03
RMM:   8    -0.116929734352E+04    0.12977E-06   -0.28264E-06  2451   0.289E-03
   5 F= -.11692973E+04 E0= -.11692973E+04  d E =-.199728E+00  mag=    10.0000
       N       E                     dE             d eps       ncg     rms          rms(c)
DAV:   1    -0.116930632519E+04   -0.89815E-02   -0.25111E+01  6400   0.566E+00    0.151E+00
RMM:   2    -0.116934655943E+04   -0.40234E-01   -0.68224E-01  6173   0.104E+00    0.115E+00
RMM:   3    -0.116934174334E+04    0.48161E-02   -0.38540E-02  6490   0.344E-01    0.718E-01
RMM:   4    -0.116933493742E+04    0.68059E-02   -0.20387E-02  6634   0.144E-01    0.372E-01
RMM:   5    -0.116933386301E+04    0.10744E-02   -0.37620E-03  6704   0.704E-02    0.194E-01
RMM:   6    -0.116933387160E+04   -0.85873E-05   -0.80896E-04  6321   0.236E-02    0.141E-01
RMM:   7    -0.116933386522E+04    0.63846E-05   -0.17775E-04  4360   0.142E-02    0.773E-02
RMM:   8    -0.116933386673E+04   -0.15142E-05   -0.12207E-04  4043   0.131E-02
   6 F= -.11693339E+04 E0= -.11693339E+04  d E =-.365232E-01  mag=    10.0000
       N       E                     dE             d eps       ncg     rms          rms(c)
DAV:   1    -0.116933932514E+04   -0.54599E-02   -0.21495E+00  6648   0.165E+00    0.444E-01
RMM:   2    -0.116934280827E+04   -0.34831E-02   -0.58108E-02  6178   0.304E-01    0.331E-01
RMM:   3    -0.116934237490E+04    0.43337E-03   -0.31724E-03  6180   0.100E-01    0.206E-01
RMM:   4    -0.116934177099E+04    0.60391E-03   -0.17244E-03  5832   0.436E-02    0.995E-02
RMM:   5    -0.116934169194E+04    0.79055E-04   -0.26026E-04  4512   0.229E-02    0.641E-02
RMM:   6    -0.116934169264E+04   -0.70444E-06   -0.61405E-05  3599   0.101E-02    0.498E-02
RMM:   7    -0.116934169296E+04   -0.32051E-06   -0.23838E-05  3453   0.673E-03    0.237E-02
RMM:   8    -0.116934169368E+04   -0.71716E-06   -0.13942E-05  3344   0.516E-03
   7 F= -.11693417E+04 E0= -.11693417E+04  d E =-.443502E-01  mag=    10.0000
       N       E                     dE             d eps       ncg     rms          rms(c)
DAV:   1    -0.116934742017E+04   -0.57272E-02   -0.10936E+01  6400   0.383E+00    0.773E-01
RMM:   2    -0.116937123047E+04   -0.23810E-01   -0.26756E-01  6189   0.654E-01    0.518E-01
RMM:   3    -0.116937123703E+04   -0.65612E-05   -0.14424E-02  6433   0.221E-01    0.328E-01
RMM:   4    -0.116937054934E+04    0.68769E-03   -0.39507E-03  7359   0.666E-02    0.163E-01
RMM:   5    -0.116937049307E+04    0.56276E-04   -0.92681E-04  6526   0.295E-02    0.536E-02
RMM:   6    -0.116937050373E+04   -0.10665E-04   -0.17515E-04  4093   0.138E-02    0.373E-02
RMM:   7    -0.116937051012E+04   -0.63916E-05   -0.70364E-05  3731   0.107E-02    0.204E-02
RMM:   8    -0.116937051650E+04   -0.63775E-05   -0.63848E-05  3629   0.850E-03
   8 F= -.11693705E+04 E0= -.11693705E+04  d E =-.288228E-01  mag=    10.0000
       N       E                     dE             d eps       ncg     rms          rms(c)
DAV:   1    -0.116933672157E+04    0.33789E-01   -0.23626E+01  6360   0.563E+00    0.114E+00
RMM:   2    -0.116938827309E+04   -0.51552E-01   -0.57932E-01  6187   0.961E-01    0.762E-01
RMM:   3    -0.116938828336E+04   -0.10273E-04   -0.31606E-02  6499   0.326E-01    0.482E-01
RMM:   4    -0.116938680722E+04    0.14761E-02   -0.85191E-03  7713   0.979E-02    0.242E-01
RMM:   5    -0.116938668914E+04    0.11808E-03   -0.21283E-03  7539   0.433E-02    0.730E-02
RMM:   6    -0.116938672624E+04   -0.37102E-04   -0.48170E-04  5512   0.200E-02    0.553E-02
RMM:   7    -0.116938674508E+04   -0.18837E-04   -0.21344E-04  4477   0.137E-02    0.315E-02
RMM:   8    -0.116938675899E+04   -0.13907E-04   -0.14777E-04  4095   0.114E-02
   9 F= -.11693868E+04 E0= -.11693868E+04  d E =-.450653E-01  mag=    10.0000
       N       E                     dE             d eps       ncg     rms          rms(c)
DAV:   1    -0.116938873284E+04   -0.19878E-02   -0.79425E+00  6472   0.326E+00    0.811E-01
RMM:   2    -0.116940742496E+04   -0.18692E-01   -0.19978E-01  6230   0.564E-01    0.523E-01
RMM:   3    -0.116940766631E+04   -0.24134E-03   -0.10974E-02  6544   0.185E-01    0.316E-01
RMM:   4    -0.116940699234E+04    0.67396E-03   -0.29803E-03  7760   0.583E-02    0.170E-01
RMM:   5    -0.116940684237E+04    0.14997E-03   -0.99070E-04  6723   0.290E-02    0.557E-02
RMM:   6    -0.116940685045E+04   -0.80846E-05   -0.16633E-04  4112   0.142E-02    0.274E-02
RMM:   7    -0.116940685672E+04   -0.62673E-05   -0.84403E-05  3775   0.111E-02    0.151E-02
RMM:   8    -0.116940686144E+04   -0.47223E-05   -0.60179E-05  3637   0.864E-03
  10 F= -.11694069E+04 E0= -.11694069E+04  d E =-.201025E-01  mag=    10.0000
       N       E                     dE             d eps       ncg     rms          rms(c)
DAV:   1    -0.116939948940E+04    0.73673E-02   -0.60839E+00  6408   0.285E+00    0.708E-01
RMM:   2    -0.116941380860E+04   -0.14319E-01   -0.15294E-01  6224   0.495E-01    0.456E-01
RMM:   3    -0.116941400868E+04   -0.20008E-03   -0.84511E-03  6505   0.163E-01    0.276E-01
RMM:   4    -0.116941348788E+04    0.52079E-03   -0.23042E-03  7581   0.512E-02    0.147E-01
RMM:   5    -0.116941337697E+04    0.11091E-03   -0.73599E-04  6364   0.255E-02    0.475E-02
RMM:   6    -0.116941338275E+04   -0.57831E-05   -0.12036E-04  3907   0.128E-02    0.237E-02
RMM:   7    -0.116941338772E+04   -0.49652E-05   -0.67148E-05  3703   0.102E-02    0.122E-02
RMM:   8    -0.116941339121E+04   -0.34873E-05   -0.44697E-05  3575   0.789E-03
  11 F= -.11694134E+04 E0= -.11694134E+04  d E =-.266322E-01  mag=    10.0000
       N       E                     dE             d eps       ncg     rms          rms(c)
DAV:   1    -0.116941090325E+04    0.24845E-02   -0.57834E+00  6464   0.276E+00    0.680E-01
RMM:   2    -0.116942576458E+04   -0.14861E-01   -0.15237E-01  6187   0.501E-01    0.439E-01
RMM:   3    -0.116942616243E+04   -0.39785E-03   -0.87863E-03  6618   0.156E-01    0.269E-01
RMM:   4    -0.116942569659E+04    0.46584E-03   -0.18042E-03  7458   0.466E-02    0.154E-01
RMM:   5    -0.116942556188E+04    0.13471E-03   -0.77775E-04  6175   0.260E-02    0.687E-02
RMM:   6    -0.116942556802E+04   -0.61349E-05   -0.13170E-04  3822   0.142E-02    0.360E-02
RMM:   7    -0.116942557059E+04   -0.25748E-05   -0.49731E-05  3617   0.942E-03    0.196E-02
RMM:   8    -0.116942557384E+04   -0.32497E-05   -0.44629E-05  3554   0.812E-03
  12 F= -.11694256E+04 E0= -.11694256E+04  d E =-.121826E-01  mag=    10.0000
       N       E                     dE             d eps       ncg     rms          rms(c)
DAV:   1    -0.116942055177E+04    0.50188E-02   -0.31092E+00  6456   0.202E+00    0.496E-01
RMM:   2    -0.116942853695E+04   -0.79852E-02   -0.81839E-02  6185   0.368E-01    0.320E-01
RMM:   3    -0.116942875548E+04   -0.21854E-03   -0.47899E-03  6576   0.114E-01    0.197E-01
RMM:   4    -0.116942850564E+04    0.24984E-03   -0.94272E-04  6543   0.343E-02    0.113E-01
RMM:   5    -0.116942842990E+04    0.75740E-04   -0.41271E-04  5092   0.212E-02    0.506E-02
RMM:   6    -0.116942843558E+04   -0.56789E-05   -0.82414E-05  3636   0.126E-02    0.280E-02
RMM:   7    -0.116942843840E+04   -0.28210E-05   -0.39534E-05  3526   0.855E-03    0.155E-02
RMM:   8    -0.116942844054E+04   -0.21397E-05   -0.27759E-05  3396   0.710E-03
  13 F= -.11694284E+04 E0= -.11694284E+04  d E =-.150493E-01  mag=    10.0000
       N       E                     dE             d eps       ncg     rms          rms(c)
DAV:   1    -0.116942503477E+04    0.34036E-02   -0.50830E+00  6448   0.261E+00    0.618E-01
RMM:   2    -0.116943696250E+04   -0.11928E-01   -0.12565E-01  6229   0.446E-01    0.407E-01
RMM:   3    -0.116943711714E+04   -0.15464E-03   -0.64629E-03  6424   0.144E-01    0.253E-01
RMM:   4    -0.116943675968E+04    0.35747E-03   -0.19024E-03  7360   0.460E-02    0.127E-01
RMM:   5    -0.116943671767E+04    0.42005E-04   -0.52411E-04  5746   0.222E-02    0.398E-02
RMM:   6    -0.116943672178E+04   -0.41125E-05   -0.85841E-05  3698   0.117E-02    0.213E-02
RMM:   7    -0.116943672627E+04   -0.44829E-05   -0.57371E-05  3589   0.943E-03    0.139E-02
RMM:   8    -0.116943672929E+04   -0.30247E-05   -0.35660E-05  3428   0.707E-03
  14 F= -.11694367E+04 E0= -.11694367E+04  d E =-.828875E-02  mag=    10.0000
       N       E                     dE             d eps       ncg     rms          rms(c)
DAV:   1    -0.116943396772E+04    0.27585E-02   -0.17972E+00  6512   0.155E+00    0.367E-01
RMM:   2    -0.116943820964E+04   -0.42419E-02   -0.44684E-02  6240   0.265E-01    0.243E-01
RMM:   3    -0.116943825704E+04   -0.47408E-04   -0.23235E-03  6360   0.860E-02    0.151E-01
RMM:   4    -0.116943812734E+04    0.12971E-03   -0.65586E-04  5840   0.279E-02    0.760E-02
RMM:   5    -0.116943811090E+04    0.16439E-04   -0.16693E-04  3894   0.164E-02    0.240E-02
RMM:   6    -0.116943811563E+04   -0.47342E-05   -0.45996E-05  3537   0.104E-02    0.141E-02
RMM:   7    -0.116943811864E+04   -0.30037E-05   -0.33008E-05  3436   0.747E-03    0.126E-02
RMM:   8    -0.116943812035E+04   -0.17134E-05   -0.18583E-05  3216   0.631E-03
  15 F= -.11694381E+04 E0= -.11694381E+04  d E =-.967980E-02  mag=    10.0000
       N       E                     dE             d eps       ncg     rms          rms(c)
DAV:   1    -0.116943240919E+04    0.57094E-02   -0.63214E+00  6384   0.290E+00    0.584E-01
RMM:   2    -0.116944634934E+04   -0.13940E-01   -0.15198E-01  6197   0.480E-01    0.389E-01
RMM:   3    -0.116944631320E+04    0.36142E-04   -0.76843E-03  6307   0.161E-01    0.243E-01
RMM:   4    -0.116944594369E+04    0.36951E-03   -0.22945E-03  7465   0.496E-02    0.116E-01
RMM:   5    -0.116944591756E+04    0.26129E-04   -0.55011E-04  5780   0.228E-02    0.594E-02
RMM:   6    -0.116944592536E+04   -0.77966E-05   -0.12294E-04  3790   0.125E-02    0.313E-02
RMM:   7    -0.116944592981E+04   -0.44480E-05   -0.52775E-05  3613   0.977E-03    0.173E-02
RMM:   8    -0.116944593474E+04   -0.49383E-05   -0.52886E-05  3542   0.781E-03
  16 F= -.11694459E+04 E0= -.11694459E+04  d E =-.781440E-02  mag=    10.0000
       N       E                     dE             d eps       ncg     rms          rms(c)
DAV:   1    -0.116944169383E+04    0.42360E-02   -0.26251E+00  6464   0.187E+00    0.376E-01
RMM:   2    -0.116944750232E+04   -0.58085E-02   -0.63303E-02  6197   0.310E-01    0.251E-01
RMM:   3    -0.116944748310E+04    0.19217E-04   -0.32682E-03  6268   0.105E-01    0.157E-01
RMM:   4    -0.116944732640E+04    0.15670E-03   -0.96878E-04  6411   0.329E-02    0.742E-02
RMM:   5    -0.116944731682E+04    0.95766E-05   -0.21164E-04  4212   0.173E-02    0.505E-02
RMM:   6    -0.116944732246E+04   -0.56418E-05   -0.63433E-05  3608   0.112E-02    0.211E-02
RMM:   7    -0.116944732668E+04   -0.42192E-05   -0.42810E-05  3509   0.819E-03    0.129E-02
RMM:   8    -0.116944732914E+04   -0.24512E-05   -0.27484E-05  3346   0.711E-03
  17 F= -.11694473E+04 E0= -.11694473E+04  d E =-.920879E-02  mag=    10.0000
       N       E                     dE             d eps       ncg     rms          rms(c)
DAV:   1    -0.116943807667E+04    0.92500E-02   -0.69255E+00  6368   0.301E+00    0.594E-01
RMM:   2    -0.116945308125E+04   -0.15005E-01   -0.16635E-01  6172   0.506E-01    0.427E-01
RMM:   3    -0.116945305049E+04    0.30769E-04   -0.84402E-03  6271   0.168E-01    0.267E-01
RMM:   4    -0.116945253089E+04    0.51959E-03   -0.25587E-03  7147   0.525E-02    0.139E-01
RMM:   5    -0.116945245498E+04    0.75917E-04   -0.68867E-04  5954   0.260E-02    0.857E-02
RMM:   6    -0.116945246111E+04   -0.61370E-05   -0.12871E-04  3850   0.130E-02    0.321E-02
RMM:   7    -0.116945246454E+04   -0.34237E-05   -0.56308E-05  3676   0.947E-03    0.208E-02
RMM:   8    -0.116945246867E+04   -0.41299E-05   -0.49308E-05  3613   0.805E-03
  18 F= -.11694525E+04 E0= -.11694525E+04  d E =-.513953E-02  mag=    10.0000
       N       E                     dE             d eps       ncg     rms          rms(c)
DAV:   1    -0.116945246036E+04    0.41728E-05   -0.10850E-02  6896   0.119E-01    0.235E-02
RMM:   2    -0.116945248524E+04   -0.24876E-04   -0.27664E-04  4128   0.213E-02    0.182E-02
RMM:   3    -0.116945248692E+04   -0.16777E-05   -0.28200E-05  3370   0.931E-03    0.114E-02
RMM:   4    -0.116945248748E+04   -0.56368E-06   -0.14442E-05  3138   0.471E-03    0.130E-02
RMM:   5    -0.116945248772E+04   -0.23245E-06   -0.80979E-06  2497   0.389E-03    0.529E-03
RMM:   6    -0.116945248810E+04   -0.38386E-06   -0.57472E-06  2151   0.300E-03    0.292E-03
RMM:   7    -0.116945248832E+04   -0.22260E-06   -0.30343E-06  1706   0.285E-03    0.164E-03
RMM:   8    -0.116945248858E+04   -0.25587E-06   -0.28367E-06  1338   0.235E-03
  19 F= -.11694525E+04 E0= -.11694525E+04  d E =-.515944E-02  mag=    10.0000
       N       E                     dE             d eps       ncg     rms          rms(c)
DAV:   1    -0.116944722747E+04    0.52609E-02   -0.44035E+00  6336   0.241E+00    0.438E-01
RMM:   2    -0.116945651070E+04   -0.92832E-02   -0.10633E-01  6163   0.406E-01    0.304E-01
RMM:   3    -0.116945636173E+04    0.14897E-03   -0.54323E-03  6194   0.137E-01    0.197E-01
RMM:   4    -0.116945607101E+04    0.29072E-03   -0.16522E-03  6775   0.422E-02    0.105E-01
RMM:   5    -0.116945602519E+04    0.45824E-04   -0.35254E-04  5031   0.205E-02    0.365E-02
RMM:   6    -0.116945603145E+04   -0.62663E-05   -0.76358E-05  3644   0.118E-02    0.288E-02
RMM:   7    -0.116945603593E+04   -0.44814E-05   -0.49273E-05  3555   0.856E-03    0.181E-02
RMM:   8    -0.116945603878E+04   -0.28483E-05   -0.34564E-05  3459   0.723E-03
  20 F= -.11694560E+04 E0= -.11694560E+04  d E =-.355021E-02  mag=    10.0000
       N       E                     dE             d eps       ncg     rms          rms(c)
DAV:   1    -0.116945597438E+04    0.61553E-04   -0.52171E-02  6672   0.263E-01    0.474E-02
RMM:   2    -0.116945609243E+04   -0.11805E-03   -0.13404E-03  6071   0.458E-02    0.333E-02
RMM:   3    -0.116945608787E+04    0.45648E-05   -0.59686E-05  3501   0.147E-02    0.221E-02
RMM:   4    -0.116945608586E+04    0.20053E-05   -0.27719E-05  3445   0.636E-03    0.149E-02
RMM:   5    -0.116945608583E+04    0.39203E-07   -0.94650E-06  2974   0.445E-03    0.823E-03
RMM:   6    -0.116945608639E+04   -0.56837E-06   -0.62785E-06  2372   0.325E-03    0.366E-03
RMM:   7    -0.116945608671E+04   -0.32129E-06   -0.35755E-06  1991   0.292E-03    0.247E-03
RMM:   8    -0.116945608690E+04   -0.18471E-06   -0.21590E-06  1544   0.240E-03
  21 F= -.11694561E+04 E0= -.11694561E+04  d E =-.359832E-02  mag=    10.0000
       N       E                     dE             d eps       ncg     rms          rms(c)
DAV:   1    -0.116945384417E+04    0.22425E-02   -0.18864E+00  6344   0.161E+00    0.347E-01
RMM:   2    -0.116945801617E+04   -0.41720E-02   -0.49018E-02  6167   0.282E-01    0.265E-01
RMM:   3    -0.116945796084E+04    0.55333E-04   -0.24940E-03  6198   0.931E-02    0.175E-01
RMM:   4    -0.116945781595E+04    0.14489E-03   -0.70361E-04  5903   0.288E-02    0.102E-01
RMM:   5    -0.116945777046E+04    0.45483E-04   -0.22834E-04  4193   0.184E-02    0.398E-02
RMM:   6    -0.116945777597E+04   -0.55031E-05   -0.53247E-05  3544   0.117E-02    0.288E-02
RMM:   7    -0.116945777866E+04   -0.26907E-05   -0.32485E-05  3492   0.732E-03    0.145E-02
RMM:   8    -0.116945778026E+04   -0.15992E-05   -0.19134E-05  3386   0.691E-03
  22 F= -.11694578E+04 E0= -.11694578E+04  d E =-.169336E-02  mag=    10.0000
       N       E                     dE             d eps       ncg     rms          rms(c)
DAV:   1    -0.116945777542E+04    0.32375E-05   -0.95070E-03  6752   0.114E-01    0.257E-02
RMM:   2    -0.116945779376E+04   -0.18338E-04   -0.22119E-04  3818   0.205E-02    0.210E-02
RMM:   3    -0.116945779551E+04   -0.17473E-05   -0.18995E-05  3315   0.847E-03    0.112E-02
RMM:   4    -0.116945779518E+04    0.32307E-06   -0.48806E-06  2805   0.346E-03    0.836E-03
RMM:   5    -0.116945779485E+04    0.33271E-06   -0.15341E-06  2047   0.251E-03    0.482E-03
RMM:   6    -0.116945779486E+04   -0.87311E-08   -0.41991E-07   850   0.187E-03    0.131E-03
RMM:   7    -0.116945779486E+04   -0.54279E-08   -0.23769E-07   781   0.187E-03    0.623E-04
RMM:   8    -0.116945779487E+04   -0.42492E-08   -0.68742E-08   608   0.179E-03
  23 F= -.11694578E+04 E0= -.11694578E+04  d E =-.170797E-02  mag=    10.0000
       N       E                     dE             d eps       ncg     rms          rms(c)
DAV:   1    -0.116945639942E+04    0.13954E-02   -0.95846E-01  6376   0.115E+00    0.325E-01
RMM:   2    -0.116945891769E+04   -0.25183E-02   -0.24388E-02  6217   0.200E-01    0.209E-01
RMM:   3    -0.116945901502E+04   -0.97328E-04   -0.12804E-03  6070   0.663E-02    0.126E-01
RMM:   4    -0.116945892746E+04    0.87561E-04   -0.36337E-04  4654   0.217E-02    0.572E-02
RMM:   5    -0.116945891829E+04    0.91739E-05   -0.86112E-05  3580   0.137E-02    0.218E-02
RMM:   6    -0.116945892171E+04   -0.34228E-05   -0.30814E-05  3485   0.870E-03    0.234E-02
RMM:   7    -0.116945892352E+04   -0.18124E-05   -0.17598E-05  3335   0.590E-03    0.106E-02
RMM:   8    -0.116945892462E+04   -0.10975E-05   -0.10839E-05  3214   0.510E-03
  24 F= -.11694589E+04 E0= -.11694589E+04  d E =-.112975E-02  mag=    10.0000
       N       E                     dE             d eps       ncg     rms          rms(c)
DAV:   1    -0.116945889878E+04    0.24746E-04   -0.14524E-02  6672   0.142E-01    0.400E-02
RMM:   2    -0.116945893635E+04   -0.37571E-04   -0.36150E-04  4250   0.256E-02    0.284E-02
RMM:   3    -0.116945894030E+04   -0.39509E-05   -0.31069E-05  3413   0.105E-02    0.168E-02
RMM:   4    -0.116945894015E+04    0.14711E-06   -0.11399E-05  3247   0.461E-03    0.153E-02
RMM:   5    -0.116945894004E+04    0.11086E-06   -0.46350E-06  2559   0.352E-03    0.661E-03
RMM:   6    -0.116945894022E+04   -0.18271E-06   -0.28026E-06  1899   0.250E-03    0.229E-03
RMM:   7    -0.116945894033E+04   -0.11110E-06   -0.11907E-06  1506   0.244E-03    0.187E-03
RMM:   8    -0.116945894038E+04   -0.41531E-07   -0.49278E-07  1005   0.194E-03
  25 F= -.11694589E+04 E0= -.11694589E+04  d E =-.114551E-02  mag=    10.0000
       N       E                     dE             d eps       ncg     rms          rms(c)
DAV:   1    -0.116945711813E+04    0.18222E-02   -0.77060E-01  6384   0.101E+00    0.323E-01
RMM:   2    -0.116945937549E+04   -0.22574E-02   -0.19373E-02  6198   0.178E-01    0.199E-01
RMM:   3    -0.116945951281E+04   -0.13732E-03   -0.10337E-03  5858   0.586E-02    0.114E-01
RMM:   4    -0.116945943498E+04    0.77829E-04   -0.28541E-04  4247   0.194E-02    0.556E-02
RMM:   5    -0.116945942424E+04    0.10747E-04   -0.84235E-05  3598   0.126E-02    0.201E-02
RMM:   6    -0.116945942711E+04   -0.28738E-05   -0.26055E-05  3469   0.811E-03    0.198E-02
RMM:   7    -0.116945942854E+04   -0.14305E-05   -0.14597E-05  3266   0.530E-03    0.890E-03
RMM:   8    -0.116945942934E+04   -0.80121E-06   -0.89379E-06  3128   0.471E-03
  26 F= -.11694594E+04 E0= -.11694594E+04  d E =-.488967E-03  mag=    10.0000
       N       E                     dE             d eps       ncg     rms          rms(c)
DAV:   1    -0.116945938880E+04    0.39744E-04   -0.27327E-02  6208   0.191E-01    0.611E-02
RMM:   2    -0.116945946580E+04   -0.77008E-04   -0.66151E-04  5380   0.337E-02    0.376E-02
RMM:   3    -0.116945947118E+04   -0.53711E-05   -0.31473E-05  3371   0.118E-02    0.209E-02
RMM:   4    -0.116945946882E+04    0.23516E-05   -0.10655E-05  3165   0.450E-03    0.105E-02
RMM:   5    -0.116945946843E+04    0.38889E-06   -0.22990E-06  2251   0.267E-03    0.453E-03
RMM:   6    -0.116945946847E+04   -0.34299E-07   -0.48101E-07  1059   0.190E-03    0.142E-03
RMM:   7    -0.116945946847E+04   -0.52387E-09   -0.10419E-07   723   0.179E-03    0.724E-04
RMM:   8    -0.116945946847E+04    0.14552E-08   -0.28496E-08   556   0.177E-03
  27 F= -.11694595E+04 E0= -.11694595E+04  d E =-.528093E-03  mag=    10.0000
