       N       E                     dE             d eps       ncg     rms          rms(c)
DAV:   1     0.121015233905E+05    0.12102E+05   -0.42701E+05 12320   0.132E+03
DAV:   2     0.702129633554E+03   -0.11399E+05   -0.10191E+05 12288   0.380E+02
DAV:   3    -0.136640567002E+04   -0.20685E+04   -0.19926E+04 13224   0.168E+02
DAV:   4    -0.150752693395E+04   -0.14112E+03   -0.13882E+03 16232   0.461E+01
DAV:   5    -0.151656444839E+04   -0.90375E+01   -0.89974E+01 22072   0.109E+01    0.182E+02
RMM:   6    -0.117169978192E+04    0.34486E+03   -0.16317E+03 12551   0.356E+01    0.124E+02
RMM:   7    -0.115614428548E+04    0.15555E+02   -0.59383E+01 12799   0.119E+01    0.711E+01
RMM:   8    -0.115966976382E+04   -0.35255E+01   -0.20755E+01 14016   0.505E+00    0.349E+01
RMM:   9    -0.116391161818E+04   -0.42419E+01   -0.63622E+00 13137   0.310E+00    0.112E+01
RMM:  10    -0.116517100138E+04   -0.12594E+01   -0.15397E+00 14349   0.130E+00    0.642E+00
RMM:  11    -0.116623725038E+04   -0.10662E+01   -0.11647E+00 15307   0.863E-01    0.425E+00
RMM:  12    -0.116712508340E+04   -0.88783E+00   -0.86590E-01 13538   0.862E-01    0.206E+00
RMM:  13    -0.116726225430E+04   -0.13717E+00   -0.18790E-01 15237   0.430E-01    0.145E+00
RMM:  14    -0.116732874339E+04   -0.66489E-01   -0.11951E-01 14560   0.301E-01    0.766E-01
RMM:  15    -0.116733932918E+04   -0.10586E-01   -0.35843E-02 15407   0.176E-01    0.448E-01
RMM:  16    -0.116734071466E+04   -0.13855E-02   -0.10797E-02 17713   0.821E-02    0.283E-01
RMM:  17    -0.116734168521E+04   -0.97055E-03   -0.57638E-03 16077   0.597E-02    0.167E-01
RMM:  18    -0.116734172712E+04   -0.41915E-04   -0.18575E-03 13690   0.325E-02    0.796E-02
RMM:  19    -0.116734181347E+04   -0.86344E-04   -0.10548E-03 10598   0.202E-02    0.434E-02
RMM:  20    -0.116734187128E+04   -0.57814E-04   -0.60341E-04 10246   0.165E-02
   1 F= -.11673419E+04 E0= -.11673419E+04  d E =-.116734E+04  mag=     9.9998
       N       E                     dE             d eps       ncg     rms          rms(c)
DAV:   1    -0.113739002010E+04    0.29952E+02   -0.11882E+03 13984   0.299E+01    0.259E+01
RMM:   2    -0.116600090333E+04   -0.28611E+02   -0.92066E+01 12645   0.901E+00    0.230E+01
RMM:   3    -0.116705962029E+04   -0.10587E+01   -0.48165E+00 13006   0.289E+00    0.125E+01
RMM:   4    -0.116696637985E+04    0.93240E-01   -0.13122E+00 14380   0.105E+00    0.126E+01
RMM:   5    -0.116693452330E+04    0.31857E-01   -0.16630E-01 16849   0.294E-01    0.850E+00
RMM:   6    -0.116687754884E+04    0.56974E-01   -0.32303E-01 12801   0.554E-01    0.497E+00
RMM:   7    -0.116687527592E+04    0.22729E-02   -0.66166E-02 14380   0.210E-01    0.734E-01
RMM:   8    -0.116687525552E+04    0.20398E-04   -0.10756E-02 16780   0.842E-02    0.623E-01
RMM:   9    -0.116687537698E+04   -0.12145E-03   -0.40218E-03 15119   0.446E-02    0.135E-01
RMM:  10    -0.116687550650E+04   -0.12952E-03   -0.16399E-03 13282   0.232E-02    0.554E-02
RMM:  11    -0.116687556972E+04   -0.63226E-04   -0.65457E-04  9624   0.154E-02
   2 F= -.11668756E+04 E0= -.11668756E+04  d E =0.466302E+00  mag=    10.0000
       N       E                     dE             d eps       ncg     rms          rms(c)
DAV:   1    -0.116417148378E+04    0.27040E+01   -0.21635E+02 13560   0.130E+01    0.116E+01
RMM:   2    -0.116810149878E+04   -0.39300E+01   -0.10153E+01 12371   0.342E+00    0.142E+01
RMM:   3    -0.116819280135E+04   -0.91303E-01   -0.74108E-01 12544   0.126E+00    0.510E+00
RMM:   4    -0.116814183518E+04    0.50966E-01   -0.28462E-01 13664   0.483E-01    0.335E+00
RMM:   5    -0.116810657160E+04    0.35264E-01   -0.80217E-02 13160   0.271E-01    0.156E+00
RMM:   6    -0.116810410664E+04    0.24650E-02   -0.32010E-02 13521   0.158E-01    0.752E-01
RMM:   7    -0.116810397251E+04    0.13413E-03   -0.47907E-03 15127   0.622E-02    0.364E-01
RMM:   8    -0.116810395716E+04    0.15350E-04   -0.96221E-04 13441   0.285E-02
   3 F= -.11681040E+04 E0= -.11681040E+04  d E =-.122839E+01  mag=    10.0000
       N       E                     dE             d eps       ncg     rms          rms(c)
DAV:   1    -0.116812294602E+04   -0.18974E-01   -0.32087E+01 13736   0.522E+00    0.390E+00
RMM:   2    -0.116831456273E+04   -0.19162E+00   -0.88893E-01 12326   0.107E+00    0.271E+00
RMM:   3    -0.116833733402E+04   -0.22771E-01   -0.51309E-02 12690   0.333E-01    0.131E+00
RMM:   4    -0.116833248051E+04    0.48535E-02   -0.15823E-02 13164   0.121E-01    0.772E-01
RMM:   5    -0.116833135934E+04    0.11212E-02   -0.47710E-03 12459   0.703E-02    0.204E-01
RMM:   6    -0.116833138454E+04   -0.25195E-04   -0.85855E-04 11846   0.258E-02    0.120E-01
RMM:   7    -0.116833138371E+04    0.82153E-06   -0.18260E-04  8562   0.130E-02    0.801E-02
RMM:   8    -0.116833139291E+04   -0.91983E-05   -0.10566E-04  7975   0.122E-02
   4 F= -.11683314E+04 E0= -.11683314E+04  d E =-.227436E+00  mag=    10.0000
       N       E                     dE             d eps       ncg     rms          rms(c)
DAV:   1    -0.116825434488E+04    0.77039E-01   -0.27181E+01 13072   0.485E+00    0.360E+00
RMM:   2    -0.116841362859E+04   -0.15928E+00   -0.68645E-01 12393   0.937E-01    0.236E+00
RMM:   3    -0.116843364043E+04   -0.20012E-01   -0.38952E-02 12978   0.295E-01    0.124E+00
RMM:   4    -0.116843035778E+04    0.32827E-02   -0.16642E-02 13217   0.120E-01    0.610E-01
RMM:   5    -0.116843009604E+04    0.26174E-03   -0.34517E-03 12612   0.568E-02    0.259E-01
RMM:   6    -0.116843012723E+04   -0.31189E-04   -0.64741E-04 10573   0.205E-02    0.116E-01
RMM:   7    -0.116843011479E+04    0.12436E-04   -0.22676E-04  8398   0.153E-02    0.999E-02
RMM:   8    -0.116843012054E+04   -0.57483E-05   -0.10661E-04  7685   0.139E-02
   5 F= -.11684301E+04 E0= -.11684301E+04  d E =-.987276E-01  mag=    10.0000
       N       E                     dE             d eps       ncg     rms          rms(c)
DAV:   1    -0.116843419200E+04   -0.40772E-02   -0.11716E+01 12928   0.378E+00    0.117E+00
RMM:   2    -0.116846495031E+04   -0.30758E-01   -0.28574E-01 12340   0.673E-01    0.809E-01
RMM:   3    -0.116846627642E+04   -0.13261E-02   -0.15891E-02 12891   0.219E-01    0.492E-01
RMM:   4    -0.116846510828E+04    0.11681E-02   -0.44963E-03 14354   0.697E-02    0.260E-01
RMM:   5    -0.116846488073E+04    0.22755E-03   -0.17128E-03 12813   0.398E-02    0.127E-01
RMM:   6    -0.116846487687E+04    0.38564E-05   -0.23738E-04  9245   0.168E-02    0.657E-02
RMM:   7    -0.116846487931E+04   -0.24421E-05   -0.87895E-05  7601   0.108E-02    0.326E-02
RMM:   8    -0.116846488400E+04   -0.46916E-05   -0.71340E-05  7423   0.929E-03
   6 F= -.11684649E+04 E0= -.11684649E+04  d E =-.347635E-01  mag=    10.0000
       N       E                     dE             d eps       ncg     rms          rms(c)
DAV:   1    -0.116846516529E+04   -0.28597E-03   -0.14985E+01 12800   0.430E+00    0.900E-01
RMM:   2    -0.116849817319E+04   -0.33008E-01   -0.35530E-01 12382   0.747E-01    0.647E-01
RMM:   3    -0.116849856742E+04   -0.39423E-03   -0.20226E-02 13025   0.239E-01    0.446E-01
RMM:   4    -0.116849765527E+04    0.91215E-03   -0.42150E-03 15812   0.693E-02    0.259E-01
RMM:   5    -0.116849740879E+04    0.24648E-03   -0.20505E-03 13054   0.389E-02    0.863E-02
RMM:   6    -0.116849741008E+04   -0.12917E-05   -0.25463E-04  9200   0.187E-02    0.605E-02
RMM:   7    -0.116849741785E+04   -0.77648E-05   -0.90193E-05  7702   0.103E-02    0.297E-02
RMM:   8    -0.116849742046E+04   -0.26088E-05   -0.91141E-05  7439   0.103E-02
   7 F= -.11684974E+04 E0= -.11684974E+04  d E =-.325365E-01  mag=    10.0000
       N       E                     dE             d eps       ncg     rms          rms(c)
DAV:   1    -0.116849609350E+04    0.13243E-02   -0.98783E+00 12752   0.352E+00    0.671E-01
RMM:   2    -0.116851775488E+04   -0.21661E-01   -0.23063E-01 12389   0.594E-01    0.437E-01
RMM:   3    -0.116851790775E+04   -0.15287E-03   -0.12355E-02 12678   0.199E-01    0.291E-01
RMM:   4    -0.116851738483E+04    0.52292E-03   -0.32013E-03 15238   0.591E-02    0.155E-01
RMM:   5    -0.116851732296E+04    0.61871E-04   -0.97293E-04 12731   0.285E-02    0.796E-02
RMM:   6    -0.116851733440E+04   -0.11445E-04   -0.18236E-04  8090   0.138E-02    0.344E-02
RMM:   7    -0.116851734009E+04   -0.56908E-05   -0.74802E-05  7458   0.998E-03    0.199E-02
RMM:   8    -0.116851734528E+04   -0.51864E-05   -0.69864E-05  7313   0.881E-03
   8 F= -.11685173E+04 E0= -.11685173E+04  d E =-.199248E-01  mag=    10.0000
       N       E                     dE             d eps       ncg     rms          rms(c)
DAV:   1    -0.116851412202E+04    0.32181E-02   -0.87561E+00 12672   0.334E+00    0.584E-01
RMM:   2    -0.116853307807E+04   -0.18956E-01   -0.20379E-01 12389   0.557E-01    0.373E-01
RMM:   3    -0.116853308018E+04   -0.21125E-05   -0.10687E-02 12571   0.190E-01    0.246E-01
RMM:   4    -0.116853267132E+04    0.40887E-03   -0.29331E-03 15122   0.561E-02    0.144E-01
RMM:   5    -0.116853264639E+04    0.24929E-04   -0.67832E-04 12223   0.242E-02    0.457E-02
RMM:   6    -0.116853266091E+04   -0.14519E-04   -0.13734E-04  7923   0.130E-02    0.217E-02
RMM:   7    -0.116853266821E+04   -0.73061E-05   -0.89773E-05  7539   0.101E-02    0.148E-02
RMM:   8    -0.116853267291E+04   -0.46996E-05   -0.69746E-05  7094   0.872E-03
   9 F= -.11685327E+04 E0= -.11685327E+04  d E =-.153276E-01  mag=    10.0000
       N       E                     dE             d eps       ncg     rms          rms(c)
DAV:   1    -0.116852814497E+04    0.45232E-02   -0.77544E+00 12736   0.316E+00    0.550E-01
RMM:   2    -0.116854509517E+04   -0.16950E-01   -0.18095E-01 12384   0.525E-01    0.343E-01
RMM:   3    -0.116854510774E+04   -0.12565E-04   -0.94906E-03 12507   0.180E-01    0.224E-01
RMM:   4    -0.116854475163E+04    0.35611E-03   -0.26254E-03 14902   0.530E-02    0.109E-01
RMM:   5    -0.116854475303E+04   -0.13974E-05   -0.55699E-04 11674   0.225E-02    0.314E-02
RMM:   6    -0.116854476299E+04   -0.99651E-05   -0.10933E-04  7722   0.126E-02    0.190E-02
RMM:   7    -0.116854477107E+04   -0.80833E-05   -0.94946E-05  7464   0.983E-03    0.106E-02
RMM:   8    -0.116854477396E+04   -0.28862E-05   -0.47658E-05  7011   0.843E-03
  10 F= -.11685448E+04 E0= -.11685448E+04  d E =-.121010E-01  mag=    10.0000
       N       E                     dE             d eps       ncg     rms          rms(c)
DAV:   1    -0.116853900759E+04    0.57635E-02   -0.68295E+00 12680   0.297E+00    0.560E-01
RMM:   2    -0.116855453811E+04   -0.15531E-01   -0.15946E-01 12424   0.494E-01    0.341E-01
RMM:   3    -0.116855469219E+04   -0.15408E-03   -0.83009E-03 12578   0.168E-01    0.215E-01
RMM:   4    -0.116855438135E+04    0.31084E-03   -0.20936E-03 14883   0.485E-02    0.118E-01
RMM:   5    -0.116855435401E+04    0.27340E-04   -0.56435E-04 11639   0.229E-02    0.647E-02
RMM:   6    -0.116855436595E+04   -0.11943E-04   -0.12352E-04  7561   0.130E-02    0.205E-02
RMM:   7    -0.116855436980E+04   -0.38428E-05   -0.49936E-05  7262   0.932E-03    0.137E-02
RMM:   8    -0.116855437370E+04   -0.39041E-05   -0.53788E-05  6933   0.855E-03
  11 F= -.11685544E+04 E0= -.11685544E+04  d E =-.959974E-02  mag=    10.0000
       N       E                     dE             d eps       ncg     rms          rms(c)
DAV:   1    -0.116854729557E+04    0.70742E-02   -0.64321E+00 12672   0.289E+00    0.551E-01
RMM:   2    -0.116856212122E+04   -0.14826E-01   -0.15039E-01 12421   0.481E-01    0.326E-01
RMM:   3    -0.116856232084E+04   -0.19962E-03   -0.78353E-03 12547   0.163E-01    0.202E-01
RMM:   4    -0.116856204370E+04    0.27714E-03   -0.19289E-03 14822   0.466E-02    0.111E-01
RMM:   5    -0.116856201614E+04    0.27562E-04   -0.53162E-04 11493   0.222E-02    0.554E-02
RMM:   6    -0.116856202777E+04   -0.11627E-04   -0.11573E-04  7490   0.128E-02    0.192E-02
RMM:   7    -0.116856203130E+04   -0.35379E-05   -0.45049E-05  7212   0.920E-03    0.121E-02
RMM:   8    -0.116856203508E+04   -0.37742E-05   -0.51423E-05  6903   0.845E-03
  12 F= -.11685620E+04 E0= -.11685620E+04  d E =-.766138E-02  mag=    10.0000
       N       E                     dE             d eps       ncg     rms          rms(c)
DAV:   1    -0.116856096929E+04    0.10620E-02   -0.22323E+00 12936   0.171E+00    0.333E-01
RMM:   2    -0.116856615571E+04   -0.51864E-02   -0.53292E-02 12410   0.290E-01    0.212E-01
RMM:   3    -0.116856622418E+04   -0.68470E-04   -0.29131E-03 12669   0.940E-02    0.140E-01
RMM:   4    -0.116856612376E+04    0.10042E-03   -0.61689E-04 11622   0.268E-02    0.813E-02
RMM:   5    -0.116856609815E+04    0.25611E-04   -0.24237E-04  8359   0.180E-02    0.386E-02
RMM:   6    -0.116856610279E+04   -0.46374E-05   -0.58140E-05  7062   0.115E-02    0.277E-02
RMM:   7    -0.116856610625E+04   -0.34551E-05   -0.33834E-05  6824   0.731E-03    0.122E-02
RMM:   8    -0.116856610775E+04   -0.15028E-05   -0.20779E-05  6703   0.737E-03
  13 F= -.11685661E+04 E0= -.11685661E+04  d E =-.407267E-02  mag=    10.0000
       N       E                     dE             d eps       ncg     rms          rms(c)
DAV:   1    -0.116856182040E+04    0.42859E-02   -0.35441E+00 12696   0.215E+00    0.449E-01
RMM:   2    -0.116857036553E+04   -0.85451E-02   -0.83041E-02 12440   0.359E-01    0.260E-01
RMM:   3    -0.116857056772E+04   -0.20219E-03   -0.43000E-03 12461   0.121E-01    0.155E-01
RMM:   4    -0.116857041828E+04    0.14944E-03   -0.10217E-03 13227   0.344E-02    0.875E-02
RMM:   5    -0.116857038969E+04    0.28587E-04   -0.30945E-04  9197   0.190E-02    0.612E-02
RMM:   6    -0.116857039716E+04   -0.74621E-05   -0.74182E-05  7149   0.117E-02    0.179E-02
RMM:   7    -0.116857040041E+04   -0.32519E-05   -0.36021E-05  6940   0.815E-03    0.115E-02
RMM:   8    -0.116857040227E+04   -0.18568E-05   -0.25706E-05  6731   0.710E-03
  14 F= -.11685704E+04 E0= -.11685704E+04  d E =-.429452E-02  mag=    10.0000
       N       E                     dE             d eps       ncg     rms          rms(c)
DAV:   1    -0.116857026610E+04    0.13431E-03   -0.11102E+00 12784   0.122E+00    0.230E-01
RMM:   2    -0.116857285130E+04   -0.25852E-02   -0.26486E-02 12435   0.205E-01    0.132E-01
RMM:   3    -0.116857288658E+04   -0.35277E-04   -0.14118E-03 12005   0.673E-02    0.834E-02
RMM:   4    -0.116857283756E+04    0.49018E-04   -0.29850E-04  8558   0.195E-02    0.472E-02
RMM:   5    -0.116857282778E+04    0.97833E-05   -0.97398E-05  7126   0.135E-02    0.294E-02
RMM:   6    -0.116857283188E+04   -0.41022E-05   -0.37126E-05  6921   0.914E-03    0.175E-02
RMM:   7    -0.116857283414E+04   -0.22537E-05   -0.21442E-05  6626   0.634E-03    0.100E-02
RMM:   8    -0.116857283531E+04   -0.11782E-05   -0.13498E-05  6201   0.566E-03
  15 F= -.11685728E+04 E0= -.11685728E+04  d E =-.243305E-02  mag=    10.0000
       N       E                     dE             d eps       ncg     rms          rms(c)
DAV:   1    -0.116857162337E+04    0.12108E-02   -0.15904E+00 12656   0.145E+00    0.281E-01
RMM:   2    -0.116857535036E+04   -0.37270E-02   -0.37536E-02 12442   0.243E-01    0.160E-01
RMM:   3    -0.116857541286E+04   -0.62494E-04   -0.19589E-03 12282   0.799E-02    0.979E-02
RMM:   4    -0.116857534495E+04    0.67908E-04   -0.42960E-04  9835   0.228E-02    0.553E-02
RMM:   5    -0.116857532987E+04    0.15080E-04   -0.12725E-04  7217   0.150E-02    0.307E-02
RMM:   6    -0.116857533518E+04   -0.53060E-05   -0.43845E-05  6962   0.101E-02    0.173E-02
RMM:   7    -0.116857533777E+04   -0.25889E-05   -0.25188E-05  6705   0.677E-03    0.106E-02
RMM:   8    -0.116857533908E+04   -0.13136E-05   -0.15557E-05  6399   0.621E-03
  16 F= -.11685753E+04 E0= -.11685753E+04  d E =-.250376E-02  mag=    10.0000
       N       E                     dE             d eps       ncg     rms          rms(c)
DAV:   1    -0.116857449070E+04    0.84707E-03   -0.13609E+00 12704   0.135E+00    0.262E-01
RMM:   2    -0.116857767382E+04   -0.31831E-02   -0.32354E-02 12463   0.227E-01    0.148E-01
RMM:   3    -0.116857772423E+04   -0.50410E-04   -0.17057E-03 12203   0.745E-02    0.909E-02
RMM:   4    -0.116857766653E+04    0.57702E-04   -0.37409E-04  9185   0.215E-02    0.508E-02
RMM:   5    -0.116857765399E+04    0.12538E-04   -0.11119E-04  7139   0.144E-02    0.283E-02
RMM:   6    -0.116857765890E+04   -0.49143E-05   -0.40498E-05  6959   0.972E-03    0.164E-02
RMM:   7    -0.116857766134E+04   -0.24342E-05   -0.23475E-05  6626   0.658E-03    0.998E-03
RMM:   8    -0.116857766263E+04   -0.12933E-05   -0.14528E-05  6310   0.599E-03
  17 F= -.11685777E+04 E0= -.11685777E+04  d E =-.232355E-02  mag=    10.0000
       N       E                     dE             d eps       ncg     rms          rms(c)
DAV:   1    -0.116857673369E+04    0.92765E-03   -0.12891E+00 12680   0.131E+00    0.257E-01
RMM:   2    -0.116857974786E+04   -0.30142E-02   -0.30536E-02 12508   0.220E-01    0.144E-01
RMM:   3    -0.116857979277E+04   -0.44912E-04   -0.15934E-03 12173   0.715E-02    0.883E-02
RMM:   4    -0.116857973492E+04    0.57851E-04   -0.34118E-04  8848   0.209E-02    0.485E-02
RMM:   5    -0.116857972470E+04    0.10227E-04   -0.10337E-04  7131   0.140E-02    0.226E-02
RMM:   6    -0.116857972935E+04   -0.46553E-05   -0.37809E-05  6940   0.929E-03    0.146E-02
RMM:   7    -0.116857973157E+04   -0.22170E-05   -0.21826E-05  6579   0.637E-03    0.894E-03
RMM:   8    -0.116857973280E+04   -0.12363E-05   -0.13568E-05  6270   0.569E-03
  18 F= -.11685797E+04 E0= -.11685797E+04  d E =-.207017E-02  mag=    10.0000
       N       E                     dE             d eps       ncg     rms          rms(c)
DAV:   1    -0.116857956359E+04    0.16797E-03   -0.75116E-01 12816   0.100E+00    0.193E-01
RMM:   2    -0.116858130674E+04   -0.17431E-02   -0.17851E-02 12504   0.168E-01    0.110E-01
RMM:   3    -0.116858132646E+04   -0.19725E-04   -0.92027E-04 11062   0.542E-02    0.678E-02
RMM:   4    -0.116858129087E+04    0.35591E-04   -0.18119E-04  7479   0.164E-02    0.376E-02
RMM:   5    -0.116858128679E+04    0.40788E-05   -0.65784E-05  7030   0.112E-02    0.243E-02
RMM:   6    -0.116858128988E+04   -0.30927E-05   -0.27233E-05  6847   0.756E-03    0.114E-02
RMM:   7    -0.116858129147E+04   -0.15857E-05   -0.15176E-05  6387   0.546E-03    0.879E-03
RMM:   8    -0.116858129234E+04   -0.86613E-06   -0.92475E-06  5693   0.459E-03
  19 F= -.11685813E+04 E0= -.11685813E+04  d E =-.155953E-02  mag=    10.0000
       N       E                     dE             d eps       ncg     rms          rms(c)
DAV:   1    -0.116858171950E+04   -0.42803E-03   -0.28479E-01 12768   0.618E-01    0.121E-01
RMM:   2    -0.116858237556E+04   -0.65606E-03   -0.68424E-03 12488   0.104E-01    0.703E-02
RMM:   3    -0.116858237681E+04   -0.12449E-05   -0.31473E-04  8448   0.328E-02    0.433E-02
RMM:   4    -0.116858236421E+04    0.12592E-04   -0.77311E-05  7030   0.112E-02    0.259E-02
RMM:   5    -0.116858236388E+04    0.32980E-06   -0.28206E-05  6865   0.763E-03    0.279E-02
RMM:   6    -0.116858236519E+04   -0.13095E-05   -0.15240E-05  6560   0.544E-03    0.728E-03
RMM:   7    -0.116858236604E+04   -0.84360E-06   -0.76444E-06  5603   0.422E-03    0.765E-03
RMM:   8    -0.116858236647E+04   -0.43263E-06   -0.45309E-06  4598   0.323E-03
  20 F= -.11685824E+04 E0= -.11685824E+04  d E =-.107413E-02  mag=    10.0000
