       N       E                     dE             d eps       ncg     rms          rms(c)
DAV:   1    -0.116901521485E+04   -0.11690E+04   -0.89137E-06  7600   0.107E-02    0.222E-02
RMM:   2    -0.116901521391E+04    0.94088E-06   -0.96518E-06  5688   0.497E-03    0.364E-02
RMM:   3    -0.116901521406E+04   -0.15536E-06   -0.30817E-06  4314   0.283E-03    0.310E-03
RMM:   4    -0.116901521411E+04   -0.52431E-07   -0.12307E-06  2924   0.239E-03    0.187E-03
RMM:   5    -0.116901521416E+04   -0.50248E-07   -0.72080E-07  2217   0.197E-03    0.212E-03
RMM:   6    -0.116901521417E+04   -0.70722E-08   -0.35215E-07  1753   0.191E-03    0.961E-04
RMM:   7    -0.116901521417E+04   -0.72760E-09   -0.10243E-07  1454   0.178E-03    0.387E-04
RMM:   8    -0.116901521417E+04    0.22264E-08   -0.48645E-08  1138   0.178E-03
   1 F= -.11690152E+04 E0= -.11690152E+04  d E =-.116902E+04  mag=    10.0000
       N       E                     dE             d eps       ncg     rms          rms(c)
DAV:   1    -0.116901533874E+04   -0.12457E-03   -0.18845E-01 12400   0.507E-01    0.154E-01
RMM:   2    -0.116901555050E+04   -0.21176E-03   -0.62610E-03 12282   0.103E-01    0.156E-01
RMM:   3    -0.116901548253E+04    0.67972E-04   -0.22399E-04  8461   0.270E-02    0.107E-01
RMM:   4    -0.116901541065E+04    0.71876E-04   -0.15205E-04  7342   0.155E-02    0.610E-02
RMM:   5    -0.116901539277E+04    0.17881E-04   -0.94746E-05  7337   0.122E-02    0.799E-02
RMM:   6    -0.116901539273E+04    0.41589E-07   -0.32624E-05  6623   0.881E-03    0.172E-02
RMM:   7    -0.116901539296E+04   -0.23423E-06   -0.99554E-06  5763   0.400E-03    0.160E-02
RMM:   8    -0.116901539329E+04   -0.32430E-06   -0.51568E-06  5375   0.383E-03
   2 F= -.11690154E+04 E0= -.11690154E+04  d E =-.179119E-03  mag=    10.0000
       N       E                     dE             d eps       ncg     rms          rms(c)
DAV:   1    -0.116901581258E+04   -0.41961E-03   -0.40486E-02 12720   0.230E-01    0.753E-02
RMM:   2    -0.116901581784E+04   -0.52589E-05   -0.14685E-03 11851   0.486E-02    0.767E-02
RMM:   3    -0.116901579200E+04    0.25836E-04   -0.51845E-05  6854   0.125E-02    0.514E-02
RMM:   4    -0.116901576559E+04    0.26411E-04   -0.67522E-05  6933   0.934E-03    0.293E-02
RMM:   5    -0.116901576165E+04    0.39362E-05   -0.17982E-05  6305   0.607E-03    0.251E-02
RMM:   6    -0.116901576180E+04   -0.14705E-06   -0.58918E-06  4947   0.342E-03    0.105E-02
RMM:   7    -0.116901576186E+04   -0.62675E-07   -0.22001E-06  4024   0.269E-03    0.765E-03
RMM:   8    -0.116901576193E+04   -0.66328E-07   -0.10141E-06  3144   0.216E-03
   3 F= -.11690158E+04 E0= -.11690158E+04  d E =-.368641E-03  mag=    10.0000
