       N       E                     dE             d eps       ncg     rms          rms(c)
DAV:   1     0.119120805114E+05    0.11912E+05   -0.42160E+05  3088   0.131E+03
DAV:   2     0.628905146844E+03   -0.11283E+05   -0.10074E+05  3080   0.374E+02
DAV:   3    -0.138548747999E+04   -0.20144E+04   -0.19426E+04  3296   0.164E+02
DAV:   4    -0.151760103017E+04   -0.13211E+03   -0.12988E+03  4136   0.437E+01
DAV:   5    -0.152548354994E+04   -0.78825E+01   -0.78555E+01  5488   0.930E+00    0.180E+02
RMM:   6    -0.117733886762E+04    0.34814E+03   -0.15919E+03  3122   0.340E+01    0.958E+01
RMM:   7    -0.116465993017E+04    0.12679E+02   -0.58471E+01  3190   0.974E+00    0.557E+01
RMM:   8    -0.117094147078E+04   -0.62815E+01   -0.29353E+01  3136   0.625E+00    0.157E+01
RMM:   9    -0.117190079472E+04   -0.95932E+00   -0.21968E+00  3664   0.145E+00    0.763E+00
RMM:  10    -0.117307158556E+04   -0.11708E+01   -0.21932E+00  3291   0.128E+00    0.562E+00
RMM:  11    -0.117424578327E+04   -0.11742E+01   -0.95321E-01  3382   0.853E-01    0.412E+00
RMM:  12    -0.117448810476E+04   -0.24232E+00   -0.27794E-01  3828   0.402E-01    0.297E+00
RMM:  13    -0.117479592409E+04   -0.30782E+00   -0.65338E-01  3108   0.588E-01    0.179E+00
RMM:  14    -0.117487304141E+04   -0.77117E-01   -0.16517E-01  3271   0.340E-01    0.153E+00
RMM:  15    -0.117487574063E+04   -0.26992E-02   -0.30997E-02  3666   0.143E-01    0.881E-01
RMM:  16    -0.117489026483E+04   -0.14524E-01   -0.40805E-02  3186   0.159E-01    0.414E-01
RMM:  17    -0.117489059150E+04   -0.32668E-03   -0.11415E-02  3240   0.899E-02    0.183E-01
RMM:  18    -0.117489072490E+04   -0.13339E-03   -0.23799E-03  3363   0.428E-02    0.739E-02
RMM:  19    -0.117489084690E+04   -0.12200E-03   -0.62937E-04  2970   0.196E-02    0.551E-02
RMM:  20    -0.117489085805E+04   -0.11149E-04   -0.18732E-04  2143   0.121E-02
   1 F= -.11748909E+04 E0= -.11748908E+04  d E =-.117489E+04  mag=     0.0064
       N       E                     dE             d eps       ncg     rms          rms(c)
DAV:   1    -0.117491224846E+04   -0.21402E-01   -0.27725E+01  3608   0.596E+00    0.146E+00
RMM:   2    -0.117499909395E+04   -0.86845E-01   -0.98499E-01  3072   0.114E+00    0.147E+00
RMM:   3    -0.117499477190E+04    0.43220E-02   -0.49739E-02  3375   0.276E-01    0.925E-01
RMM:   4    -0.117499100033E+04    0.37716E-02   -0.12914E-02  3345   0.105E-01    0.807E-01
RMM:   5    -0.117498751459E+04    0.34857E-02   -0.88674E-03  3223   0.843E-02    0.293E-01
RMM:   6    -0.117498828191E+04   -0.76732E-03   -0.18135E-03  3194   0.370E-02    0.305E-01
RMM:   7    -0.117498866369E+04   -0.38178E-03   -0.38722E-04  2380   0.157E-02    0.323E-01
RMM:   8    -0.117498863850E+04    0.25188E-04   -0.11673E-04  2074   0.904E-03
   2 F= -.11749886E+04 E0= -.11749782E+04  d E =-.977805E-01  mag=     0.0488
       N       E                     dE             d eps       ncg     rms          rms(c)
DAV:   1    -0.117499918758E+04   -0.10524E-01   -0.10026E+01  3560   0.360E+00    0.191E+00
RMM:   2    -0.117503797009E+04   -0.38783E-01   -0.40506E-01  3064   0.686E-01    0.131E+00
RMM:   3    -0.117502889806E+04    0.90720E-02   -0.36998E-02  3050   0.198E-01    0.101E+00
RMM:   4    -0.117502651183E+04    0.23862E-02   -0.19188E-02  3210   0.901E-02    0.366E-01
RMM:   5    -0.117502737590E+04   -0.86407E-03   -0.67365E-03  3311   0.631E-02    0.232E-01
RMM:   6    -0.117502742053E+04   -0.44631E-04   -0.13318E-03  3195   0.270E-02    0.144E-01
RMM:   7    -0.117502752327E+04   -0.10274E-03   -0.54204E-04  2744   0.183E-02    0.161E-01
RMM:   8    -0.117502786550E+04   -0.34223E-03   -0.61709E-04  2427   0.179E-02    0.171E-01
RMM:   9    -0.117502786508E+04    0.41626E-06   -0.26588E-04  2046   0.107E-02
   3 F= -.11750279E+04 E0= -.11750092E+04  d E =-.137007E+00  mag=     0.5301
       N       E                     dE             d eps       ncg     rms          rms(c)
DAV:   1    -0.117501796373E+04    0.99018E-02   -0.40059E+01  3360   0.711E+00    0.190E+00
RMM:   2    -0.117514441749E+04   -0.12645E+00   -0.11294E+00  3064   0.127E+00    0.138E+00
RMM:   3    -0.117514336455E+04    0.10529E-02   -0.46821E-02  3196   0.276E-01    0.926E-01
RMM:   4    -0.117514667389E+04   -0.33093E-02   -0.18404E-02  3390   0.124E-01    0.568E-01
RMM:   5    -0.117514568116E+04    0.99273E-03   -0.90742E-03  3327   0.835E-02    0.256E-01
RMM:   6    -0.117514631019E+04   -0.62903E-03   -0.16564E-03  3402   0.326E-02    0.170E-01
RMM:   7    -0.117514706325E+04   -0.75306E-03   -0.99380E-04  3095   0.288E-02    0.123E-01
RMM:   8    -0.117514780160E+04   -0.73835E-03   -0.61745E-04  2816   0.251E-02    0.888E-02
RMM:   9    -0.117514817293E+04   -0.37133E-03   -0.24232E-04  2295   0.160E-02    0.754E-02
RMM:  10    -0.117514859807E+04   -0.42514E-03   -0.35031E-04  2444   0.178E-02    0.544E-02
RMM:  11    -0.117514878476E+04   -0.18670E-03   -0.27164E-04  2317   0.163E-02    0.350E-02
RMM:  12    -0.117514880406E+04   -0.19291E-04   -0.59585E-05  1835   0.775E-03
   4 F= -.11751488E+04 E0= -.11751396E+04  d E =-.257946E+00  mag=     1.8925
       N       E                     dE             d eps       ncg     rms          rms(c)
DAV:   1    -0.117519662785E+04   -0.47843E-01   -0.90525E+00  3360   0.347E+00    0.932E-01
RMM:   2    -0.117521147374E+04   -0.14846E-01   -0.25197E-01  3072   0.617E-01    0.783E-01
RMM:   3    -0.117520940550E+04    0.20682E-02   -0.11612E-02  3209   0.137E-01    0.495E-01
RMM:   4    -0.117520825976E+04    0.11457E-02   -0.55653E-03  3310   0.687E-02    0.290E-01
RMM:   5    -0.117520771742E+04    0.54234E-03   -0.12501E-03  3086   0.320E-02    0.852E-02
RMM:   6    -0.117520771485E+04    0.25644E-05   -0.16075E-04  2122   0.121E-02    0.488E-02
RMM:   7    -0.117520772113E+04   -0.62777E-05   -0.76790E-05  1939   0.927E-03    0.169E-02
RMM:   8    -0.117520772334E+04   -0.22047E-05   -0.29441E-05  1829   0.602E-03
   5 F= -.11752077E+04 E0= -.11751984E+04  d E =-.589193E-01  mag=     1.9288
       N       E                     dE             d eps       ncg     rms          rms(c)
DAV:   1    -0.117521226454E+04   -0.45434E-02   -0.20077E+00  3448   0.164E+00    0.443E-01
RMM:   2    -0.117521550042E+04   -0.32359E-02   -0.54944E-02  3067   0.287E-01    0.378E-01
RMM:   3    -0.117521506499E+04    0.43543E-03   -0.26101E-03  3183   0.637E-02    0.243E-01
RMM:   4    -0.117521482479E+04    0.24020E-03   -0.12862E-03  2857   0.331E-02    0.138E-01
RMM:   5    -0.117521470063E+04    0.12416E-03   -0.25369E-04  2265   0.158E-02    0.410E-02
RMM:   6    -0.117521470223E+04   -0.16059E-05   -0.47717E-05  1842   0.782E-03    0.226E-02
RMM:   7    -0.117521470441E+04   -0.21783E-05   -0.24104E-05  1771   0.564E-03    0.131E-02
RMM:   8    -0.117521470483E+04   -0.42238E-06   -0.11210E-05  1708   0.390E-03
   6 F= -.11752147E+04 E0= -.11752055E+04  d E =-.659008E-01  mag=     1.9396
       N       E                     dE             d eps       ncg     rms          rms(c)
DAV:   1    -0.117525629979E+04   -0.41595E-01   -0.33946E+00  3232   0.210E+00    0.538E-01
RMM:   2    -0.117526342238E+04   -0.71226E-02   -0.10948E-01  3072   0.416E-01    0.544E-01
RMM:   3    -0.117526257233E+04    0.85005E-03   -0.41397E-03  3243   0.805E-02    0.371E-01
RMM:   4    -0.117526186319E+04    0.70914E-03   -0.24322E-03  3063   0.475E-02    0.207E-01
RMM:   5    -0.117526149328E+04    0.36991E-03   -0.64829E-04  2727   0.252E-02    0.455E-02
RMM:   6    -0.117526148351E+04    0.97670E-05   -0.62162E-05  1919   0.808E-03    0.343E-02
RMM:   7    -0.117526148080E+04    0.27067E-05   -0.29818E-05  1754   0.619E-03    0.164E-02
RMM:   8    -0.117526148228E+04   -0.14796E-05   -0.19192E-05  1706   0.494E-03
   7 F= -.11752615E+04 E0= -.11752521E+04  d E =-.467775E-01  mag=     1.9437
       N       E                     dE             d eps       ncg     rms          rms(c)
DAV:   1    -0.117527982561E+04   -0.18345E-01   -0.41585E+00  3232   0.232E+00    0.595E-01
RMM:   2    -0.117528854675E+04   -0.87211E-02   -0.13421E-01  3072   0.460E-01    0.597E-01
RMM:   3    -0.117528748560E+04    0.10611E-02   -0.50654E-03  3236   0.891E-02    0.403E-01
RMM:   4    -0.117528661642E+04    0.86918E-03   -0.29670E-03  3108   0.523E-02    0.229E-01
RMM:   5    -0.117528616020E+04    0.45623E-03   -0.80412E-04  2776   0.279E-02    0.500E-02
RMM:   6    -0.117528614957E+04    0.10629E-04   -0.80816E-05  1995   0.892E-03    0.384E-02
RMM:   7    -0.117528614660E+04    0.29733E-05   -0.36856E-05  1794   0.678E-03    0.195E-02
RMM:   8    -0.117528614826E+04   -0.16652E-05   -0.26369E-05  1751   0.562E-03
   8 F= -.11752861E+04 E0= -.11752767E+04  d E =-.714434E-01  mag=     1.9479
       N       E                     dE             d eps       ncg     rms          rms(c)
DAV:   1    -0.117528738472E+04   -0.12381E-02   -0.75397E-01  3256   0.990E-01    0.254E-01
RMM:   2    -0.117528896967E+04   -0.15850E-02   -0.24411E-02  3072   0.196E-01    0.254E-01
RMM:   3    -0.117528876944E+04    0.20023E-03   -0.89847E-04  2913   0.380E-02    0.170E-01
RMM:   4    -0.117528860969E+04    0.15975E-03   -0.53896E-04  2644   0.226E-02    0.947E-02
RMM:   5    -0.117528852807E+04    0.81615E-04   -0.12931E-04  2043   0.123E-02    0.224E-02
RMM:   6    -0.117528852846E+04   -0.38942E-06   -0.24015E-05  1746   0.570E-03    0.138E-02
RMM:   7    -0.117528852859E+04   -0.12739E-06   -0.11843E-05  1610   0.387E-03    0.108E-02
RMM:   8    -0.117528852876E+04   -0.17359E-06   -0.61205E-06  1535   0.314E-03
   9 F= -.11752885E+04 E0= -.11752791E+04  d E =-.738239E-01  mag=     1.9502
       N       E                     dE             d eps       ncg     rms          rms(c)
DAV:   1    -0.117529945538E+04   -0.10927E-01   -0.22232E+00  3224   0.177E+00    0.405E-01
RMM:   2    -0.117530455428E+04   -0.50989E-02   -0.67315E-02  3072   0.320E-01    0.356E-01
RMM:   3    -0.117530424707E+04    0.30721E-03   -0.25864E-03  3356   0.668E-02    0.233E-01
RMM:   4    -0.117530408486E+04    0.16221E-03   -0.10692E-03  3001   0.309E-02    0.148E-01
RMM:   5    -0.117530393119E+04    0.15367E-03   -0.31658E-04  2467   0.174E-02    0.288E-02
RMM:   6    -0.117530393093E+04    0.26220E-06   -0.54644E-05  1806   0.772E-03    0.210E-02
RMM:   7    -0.117530393116E+04   -0.23526E-06   -0.22526E-05  1747   0.532E-03    0.123E-02
RMM:   8    -0.117530393233E+04   -0.11721E-05   -0.14284E-05  1688   0.420E-03
  10 F= -.11753039E+04 E0= -.11752945E+04  d E =-.154036E-01  mag=     1.9514
       N       E                     dE             d eps       ncg     rms          rms(c)
DAV:   1    -0.117530361047E+04    0.32069E-03   -0.39710E+00  3208   0.236E+00    0.540E-01
RMM:   2    -0.117531273363E+04   -0.91232E-02   -0.12031E-01  3072   0.428E-01    0.475E-01
RMM:   3    -0.117531218119E+04    0.55244E-03   -0.46472E-03  3380   0.895E-02    0.310E-01
RMM:   4    -0.117531190452E+04    0.27667E-03   -0.19293E-03  3169   0.410E-02    0.201E-01
RMM:   5    -0.117531162493E+04    0.27959E-03   -0.62649E-04  2789   0.233E-02    0.391E-02
RMM:   6    -0.117531162038E+04    0.45518E-05   -0.82446E-05  1928   0.918E-03    0.305E-02
RMM:   7    -0.117531162032E+04    0.62704E-07   -0.38373E-05  1797   0.670E-03    0.166E-02
RMM:   8    -0.117531162220E+04   -0.18779E-05   -0.23366E-05  1762   0.525E-03
  11 F= -.11753116E+04 E0= -.11753022E+04  d E =-.230934E-01  mag=     1.9528
       N       E                     dE             d eps       ncg     rms          rms(c)
DAV:   1    -0.117531953893E+04   -0.79186E-02   -0.29141E+00  3232   0.203E+00    0.448E-01
RMM:   2    -0.117532572765E+04   -0.61887E-02   -0.78653E-02  3072   0.339E-01    0.337E-01
RMM:   3    -0.117532532322E+04    0.40443E-03   -0.31366E-03  3132   0.796E-02    0.212E-01
RMM:   4    -0.117532514904E+04    0.17419E-03   -0.12797E-03  3239   0.331E-02    0.120E-01
RMM:   5    -0.117532503488E+04    0.11416E-03   -0.30997E-04  2418   0.162E-02    0.292E-02
RMM:   6    -0.117532503823E+04   -0.33483E-05   -0.69211E-05  1808   0.848E-03    0.193E-02
RMM:   7    -0.117532504048E+04   -0.22540E-05   -0.34231E-05  1769   0.613E-03    0.118E-02
RMM:   8    -0.117532504209E+04   -0.16049E-05   -0.20111E-05  1672   0.472E-03
  12 F= -.11753250E+04 E0= -.11753157E+04  d E =-.134199E-01  mag=     1.9550
       N       E                     dE             d eps       ncg     rms          rms(c)
DAV:   1    -0.117532051374E+04    0.45267E-02   -0.65145E+00  3232   0.303E+00    0.670E-01
RMM:   2    -0.117533429290E+04   -0.13779E-01   -0.17537E-01  3072   0.507E-01    0.503E-01
RMM:   3    -0.117533339417E+04    0.89873E-03   -0.69983E-03  3182   0.119E-01    0.316E-01
RMM:   4    -0.117533300406E+04    0.39012E-03   -0.28092E-03  3373   0.489E-02    0.180E-01
RMM:   5    -0.117533275611E+04    0.24795E-03   -0.76475E-04  3171   0.237E-02    0.429E-02
RMM:   6    -0.117533275872E+04   -0.26100E-05   -0.13760E-04  2038   0.108E-02    0.315E-02
RMM:   7    -0.117533276301E+04   -0.42933E-05   -0.71996E-05  1839   0.796E-03    0.176E-02
RMM:   8    -0.117533276579E+04   -0.27796E-05   -0.41767E-05  1783   0.643E-03
  13 F= -.11753328E+04 E0= -.11753237E+04  d E =-.211436E-01  mag=     1.9576
       N       E                     dE             d eps       ncg     rms          rms(c)
DAV:   1    -0.117533389308E+04   -0.11301E-02   -0.30740E+00  3264   0.199E+00    0.351E-01
RMM:   2    -0.117534039701E+04   -0.65039E-02   -0.74699E-02  3073   0.325E-01    0.274E-01
RMM:   3    -0.117534014991E+04    0.24709E-03   -0.30497E-03  3119   0.765E-02    0.177E-01
RMM:   4    -0.117533996762E+04    0.18229E-03   -0.10493E-03  3047   0.299E-02    0.106E-01
RMM:   5    -0.117533987321E+04    0.94410E-04   -0.27838E-04  2393   0.157E-02    0.256E-02
RMM:   6    -0.117533987582E+04   -0.26083E-05   -0.39657E-05  1780   0.765E-03    0.156E-02
RMM:   7    -0.117533987811E+04   -0.22850E-05   -0.32870E-05  1732   0.592E-03    0.112E-02
RMM:   8    -0.117533987952E+04   -0.14183E-05   -0.21918E-05  1638   0.455E-03
  14 F= -.11753399E+04 E0= -.11753310E+04  d E =-.711373E-02  mag=     1.9589
       N       E                     dE             d eps       ncg     rms          rms(c)
DAV:   1    -0.117533445205E+04    0.54261E-02   -0.46216E+00  3232   0.244E+00    0.431E-01
RMM:   2    -0.117534421459E+04   -0.97625E-02   -0.11221E-01  3073   0.399E-01    0.336E-01
RMM:   3    -0.117534384417E+04    0.37042E-03   -0.45680E-03  3139   0.937E-02    0.216E-01
RMM:   4    -0.117534357265E+04    0.27152E-03   -0.15700E-03  3156   0.364E-02    0.130E-01
RMM:   5    -0.117534342777E+04    0.14488E-03   -0.43420E-04  2740   0.187E-02    0.298E-02
RMM:   6    -0.117534342857E+04   -0.80097E-06   -0.40523E-05  1804   0.826E-03    0.211E-02
RMM:   7    -0.117534343158E+04   -0.30120E-05   -0.47511E-05  1777   0.643E-03    0.124E-02
RMM:   8    -0.117534343306E+04   -0.14813E-05   -0.26793E-05  1718   0.536E-03
  15 F= -.11753434E+04 E0= -.11753347E+04  d E =-.106673E-01  mag=     1.9601
       N       E                     dE             d eps       ncg     rms          rms(c)
DAV:   1    -0.117534389546E+04   -0.46388E-03   -0.27096E+00  3168   0.185E+00    0.302E-01
RMM:   2    -0.117534970228E+04   -0.58068E-02   -0.64337E-02  3073   0.299E-01    0.223E-01
RMM:   3    -0.117534953228E+04    0.16999E-03   -0.26120E-03  3097   0.709E-02    0.143E-01
RMM:   4    -0.117534939176E+04    0.14052E-03   -0.82624E-04  2995   0.263E-02    0.824E-02
RMM:   5    -0.117534932985E+04    0.61913E-04   -0.18469E-04  2150   0.127E-02    0.222E-02
RMM:   6    -0.117534933297E+04   -0.31207E-05   -0.32731E-05  1758   0.674E-03    0.145E-02
RMM:   7    -0.117534933536E+04   -0.23853E-05   -0.25761E-05  1731   0.514E-03    0.100E-02
RMM:   8    -0.117534933616E+04   -0.80621E-06   -0.14448E-05  1563   0.385E-03
  16 F= -.11753493E+04 E0= -.11753407E+04  d E =-.590310E-02  mag=     1.9602
       N       E                     dE             d eps       ncg     rms          rms(c)
DAV:   1    -0.117533945346E+04    0.98819E-02   -0.66870E+00  3168   0.291E+00    0.476E-01
RMM:   2    -0.117535378416E+04   -0.14331E-01   -0.15873E-01  3072   0.470E-01    0.350E-01
RMM:   3    -0.117535334148E+04    0.44268E-03   -0.63784E-03  3110   0.111E-01    0.225E-01
RMM:   4    -0.117535299736E+04    0.34412E-03   -0.20407E-03  3065   0.411E-02    0.128E-01
RMM:   5    -0.117535285058E+04    0.14679E-03   -0.48064E-04  2885   0.191E-02    0.334E-02
RMM:   6    -0.117535285334E+04   -0.27627E-05   -0.42868E-05  1814   0.841E-03    0.223E-02
RMM:   7    -0.117535285872E+04   -0.53857E-05   -0.61046E-05  1811   0.670E-03    0.969E-03
RMM:   8    -0.117535285910E+04   -0.37013E-06   -0.14715E-05  1686   0.510E-03
  17 F= -.11753529E+04 E0= -.11753442E+04  d E =-.942604E-02  mag=     1.9605
       N       E                     dE             d eps       ncg     rms          rms(c)
DAV:   1    -0.117535269199E+04    0.16673E-03   -0.14134E+00  3248   0.134E+00    0.233E-01
RMM:   2    -0.117535583394E+04   -0.31419E-02   -0.34461E-02  3072   0.220E-01    0.180E-01
RMM:   3    -0.117535572881E+04    0.10513E-03   -0.13664E-03  2977   0.516E-02    0.118E-01
RMM:   4    -0.117535565696E+04    0.71846E-04   -0.43999E-04  2715   0.196E-02    0.655E-02
RMM:   5    -0.117535562560E+04    0.31358E-04   -0.10594E-04  1884   0.104E-02    0.161E-02
RMM:   6    -0.117535562843E+04   -0.28278E-05   -0.27881E-05  1720   0.560E-03    0.105E-02
RMM:   7    -0.117535562942E+04   -0.98697E-06   -0.15888E-05  1601   0.404E-03    0.721E-03
RMM:   8    -0.117535562999E+04   -0.56955E-06   -0.91826E-06  1444   0.323E-03
  18 F= -.11753556E+04 E0= -.11753469E+04  d E =-.277089E-02  mag=     1.9609
       N       E                     dE             d eps       ncg     rms          rms(c)
DAV:   1    -0.117535045758E+04    0.51718E-02   -0.32630E+00  3168   0.204E+00    0.355E-01
RMM:   2    -0.117535768602E+04   -0.72284E-02   -0.79261E-02  3072   0.334E-01    0.274E-01
RMM:   3    -0.117535745418E+04    0.23184E-03   -0.30986E-03  3048   0.783E-02    0.180E-01
RMM:   4    -0.117535728825E+04    0.16593E-03   -0.10036E-03  2996   0.293E-02    0.991E-02
RMM:   5    -0.117535721715E+04    0.71102E-04   -0.25290E-04  2372   0.146E-02    0.250E-02
RMM:   6    -0.117535721934E+04   -0.21873E-05   -0.34356E-05  1758   0.705E-03    0.154E-02
RMM:   7    -0.117535722084E+04   -0.14982E-05   -0.27867E-05  1734   0.536E-03    0.107E-02
RMM:   8    -0.117535722189E+04   -0.10473E-05   -0.18076E-05  1623   0.416E-03
  19 F= -.11753572E+04 E0= -.11753484E+04  d E =-.436279E-02  mag=     1.9615
       N       E                     dE             d eps       ncg     rms          rms(c)
DAV:   1    -0.117535590483E+04    0.13160E-02   -0.17783E+00  3184   0.152E+00    0.283E-01
RMM:   2    -0.117535979607E+04   -0.38912E-02   -0.43875E-02  3073   0.251E-01    0.211E-01
RMM:   3    -0.117535963424E+04    0.16183E-03   -0.17311E-03  3047   0.581E-02    0.135E-01
RMM:   4    -0.117535952924E+04    0.10500E-03   -0.58337E-04  2869   0.226E-02    0.714E-02
RMM:   5    -0.117535948684E+04    0.42403E-04   -0.13273E-04  2027   0.119E-02    0.206E-02
RMM:   6    -0.117535949008E+04   -0.32425E-05   -0.34831E-05  1731   0.656E-03    0.112E-02
RMM:   7    -0.117535949149E+04   -0.14073E-05   -0.21227E-05  1672   0.487E-03    0.102E-02
RMM:   8    -0.117535949210E+04   -0.60718E-06   -0.10986E-05  1543   0.378E-03
  20 F= -.11753595E+04 E0= -.11753506E+04  d E =-.227021E-02  mag=     1.9606
       N       E                     dE             d eps       ncg     rms          rms(c)
DAV:   1    -0.117535803686E+04    0.14546E-02   -0.94822E-01  3184   0.111E+00    0.207E-01
RMM:   2    -0.117536011608E+04   -0.20792E-02   -0.23440E-02  3072   0.183E-01    0.154E-01
RMM:   3    -0.117536002710E+04    0.88983E-04   -0.91393E-04  2861   0.425E-02    0.984E-02
RMM:   4    -0.117535997131E+04    0.55785E-04   -0.30912E-04  2297   0.167E-02    0.530E-02
RMM:   5    -0.117535994965E+04    0.21660E-04   -0.75291E-05  1817   0.926E-03    0.143E-02
RMM:   6    -0.117535995166E+04   -0.20121E-05   -0.22456E-05  1709   0.522E-03    0.862E-03
RMM:   7    -0.117535995253E+04   -0.86885E-06   -0.12141E-05  1561   0.378E-03    0.662E-03
RMM:   8    -0.117535995309E+04   -0.55808E-06   -0.75862E-06  1450   0.311E-03
  21 F= -.11753600E+04 E0= -.11753510E+04  d E =-.273120E-02  mag=     1.9598
       N       E                     dE             d eps       ncg     rms          rms(c)
DAV:   1    -0.117535961719E+04    0.33534E-03   -0.69286E-01  3232   0.969E-01    0.196E-01
RMM:   2    -0.117536104251E+04   -0.14253E-02   -0.17642E-02  3072   0.162E-01    0.146E-01
RMM:   3    -0.117536094759E+04    0.94920E-04   -0.69704E-04  2778   0.375E-02    0.912E-02
RMM:   4    -0.117536088831E+04    0.59276E-04   -0.27281E-04  2203   0.161E-02    0.487E-02
RMM:   5    -0.117536087135E+04    0.16963E-04   -0.62797E-05  1808   0.853E-03    0.144E-02
RMM:   6    -0.117536087280E+04   -0.14531E-05   -0.17899E-05  1709   0.489E-03    0.967E-03
RMM:   7    -0.117536087354E+04   -0.73855E-06   -0.89756E-06  1516   0.341E-03    0.458E-03
RMM:   8    -0.117536087402E+04   -0.47917E-06   -0.48862E-06  1364   0.282E-03
  22 F= -.11753609E+04 E0= -.11753520E+04  d E =-.920930E-03  mag=     1.9593
