       N       E                     dE             d eps       ncg     rms          rms(c)
DAV:   1    -0.117536383031E+04   -0.11754E+04   -0.29724E-06  3616   0.275E-03    0.334E-03
RMM:   2    -0.117536383022E+04    0.89334E-07   -0.22185E-07  1221   0.181E-03    0.186E-03
RMM:   3    -0.117536383017E+04    0.54657E-07   -0.26471E-08   855   0.167E-03    0.677E-04
RMM:   4    -0.117536383016E+04    0.46857E-08   -0.44608E-09   399   0.166E-03    0.377E-04
RMM:   5    -0.117536383016E+04    0.19936E-08   -0.47306E-18   334   0.166E-03    0.173E-04
RMM:   6    -0.117536383016E+04    0.58208E-09   -0.11372E-09   293   0.166E-03    0.611E-05
RMM:   7    -0.117536383016E+04    0.13097E-09   -0.22590E-09   267   0.166E-03    0.319E-05
RMM:   8    -0.117536383016E+04    0.45111E-09    0.00000E+00   252   0.166E-03
   1 F= -.11753638E+04 E0= -.11753546E+04  d E =-.117536E+04  mag=     1.9495
       N       E                     dE             d eps       ncg     rms          rms(c)
DAV:   1    -0.117536384349E+04   -0.13331E-04   -0.91899E-02  6144   0.345E-01    0.104E-01
RMM:   2    -0.117536386893E+04   -0.25434E-04   -0.32842E-03  6094   0.696E-02    0.981E-02
RMM:   3    -0.117536379877E+04    0.70158E-04   -0.11944E-04  3970   0.151E-02    0.649E-02
RMM:   4    -0.117536375094E+04    0.47832E-04   -0.15531E-04  3673   0.129E-02    0.296E-02
RMM:   5    -0.117536373889E+04    0.12046E-04   -0.28738E-05  3364   0.571E-03    0.160E-02
RMM:   6    -0.117536373892E+04   -0.33935E-07   -0.73081E-06  2597   0.304E-03    0.105E-02
RMM:   7    -0.117536373932E+04   -0.40026E-06   -0.28551E-06  2184   0.234E-03    0.563E-03
RMM:   8    -0.117536373931E+04    0.98080E-08   -0.54893E-07  1595   0.200E-03
   2 F= -.11753637E+04 E0= -.11753544E+04  d E =0.908462E-04  mag=     1.9496
       N       E                     dE             d eps       ncg     rms          rms(c)
DAV:   1    -0.117536421357E+04   -0.47425E-03   -0.26131E-02  6240   0.181E-01    0.599E-02
RMM:   2    -0.117536420418E+04    0.93957E-05   -0.10037E-03  5719   0.386E-02    0.646E-02
RMM:   3    -0.117536418141E+04    0.22772E-04   -0.36290E-05  3248   0.794E-03    0.440E-02
RMM:   4    -0.117536416403E+04    0.17378E-04   -0.56954E-05  3369   0.770E-03    0.199E-02
RMM:   5    -0.117536415849E+04    0.55374E-05   -0.10805E-05  2847   0.350E-03    0.104E-02
RMM:   6    -0.117536415832E+04    0.16736E-06   -0.15256E-06  1688   0.201E-03    0.686E-03
RMM:   7    -0.117536415838E+04   -0.60725E-07   -0.78120E-07  1385   0.192E-03    0.292E-03
RMM:   8    -0.117536415838E+04    0.59517E-08   -0.16373E-07   865   0.177E-03
   3 F= -.11753642E+04 E0= -.11753549E+04  d E =-.419063E-03  mag=     1.9495
