       N       E                     dE             d eps       ncg     rms          rms(c)
DAV:   1    -0.115672971985E+04   -0.11567E+04   -0.25747E-05  7976   0.170E-02    0.345E-02
RMM:   2    -0.115672972099E+04   -0.11405E-05   -0.33537E-05  6637   0.975E-03    0.614E-02
RMM:   3    -0.115672972238E+04   -0.13932E-05   -0.13942E-05  6193   0.489E-03    0.682E-03
RMM:   4    -0.115672972412E+04   -0.17374E-05   -0.66191E-06  5202   0.403E-03    0.998E-03
RMM:   5    -0.115672972516E+04   -0.10451E-05   -0.46303E-06  3993   0.296E-03    0.723E-03
RMM:   6    -0.115672972525E+04   -0.84998E-07   -0.25360E-06  3325   0.296E-03    0.628E-03
RMM:   7    -0.115672972587E+04   -0.62259E-06   -0.18179E-06  2720   0.228E-03    0.662E-03
RMM:   8    -0.115672972602E+04   -0.14598E-06   -0.10486E-06  2462   0.235E-03
   1 F= -.11567297E+04 E0= -.11567297E+04  d E =-.115673E+04  mag=    14.0000
       N       E                     dE             d eps       ncg     rms          rms(c)
DAV:   1    -0.115673012209E+04   -0.39622E-03   -0.41221E-01 12776   0.754E-01    0.224E-01
RMM:   2    -0.115673093981E+04   -0.81771E-03   -0.12516E-02 12303   0.147E-01    0.195E-01
RMM:   3    -0.115673088494E+04    0.54864E-04   -0.62000E-04 11173   0.464E-02    0.128E-01
RMM:   4    -0.115673078931E+04    0.95636E-04   -0.23472E-04  8434   0.187E-02    0.700E-02
RMM:   5    -0.115673076709E+04    0.22212E-04   -0.90714E-05  7252   0.136E-02    0.388E-02
RMM:   6    -0.115673077042E+04   -0.33264E-05   -0.23520E-05  6995   0.806E-03    0.211E-02
RMM:   7    -0.115673077217E+04   -0.17539E-05   -0.11523E-05  6505   0.470E-03    0.120E-02
RMM:   8    -0.115673077433E+04   -0.21546E-05   -0.68631E-06  6272   0.413E-03
   2 F= -.11567308E+04 E0= -.11567308E+04  d E =-.104831E-02  mag=    14.0000
       N       E                     dE             d eps       ncg     rms          rms(c)
DAV:   1    -0.115673143188E+04   -0.65970E-03   -0.97217E-02 12224   0.360E-01    0.117E-01
RMM:   2    -0.115673159078E+04   -0.15890E-03   -0.31540E-03 12176   0.736E-02    0.112E-01
RMM:   3    -0.115673156897E+04    0.21810E-04   -0.12454E-04  7603   0.225E-02    0.750E-02
RMM:   4    -0.115673153905E+04    0.29925E-04   -0.81966E-05  7160   0.114E-02    0.402E-02
RMM:   5    -0.115673153352E+04    0.55301E-05   -0.34242E-05  6858   0.818E-03    0.338E-02
RMM:   6    -0.115673153508E+04   -0.15615E-05   -0.11039E-05  5934   0.519E-03    0.129E-02
RMM:   7    -0.115673153626E+04   -0.11845E-05   -0.48821E-06  4886   0.327E-03    0.971E-03
RMM:   8    -0.115673153774E+04   -0.14757E-05   -0.32639E-06  4708   0.296E-03
   3 F= -.11567315E+04 E0= -.11567315E+04  d E =-.763410E-03  mag=    14.0000
