       N       E                     dE             d eps       ncg     rms          rms(c)
DAV:   1    -0.115745777355E+04   -0.11575E+04   -0.67174E-06  7448   0.455E-03    0.536E-03
RMM:   2    -0.115745777388E+04   -0.33577E-06   -0.31278E-06  5009   0.340E-03    0.826E-03
RMM:   3    -0.115745777400E+04   -0.12026E-06   -0.12283E-06  2738   0.202E-03    0.135E-03
RMM:   4    -0.115745777407E+04   -0.71872E-07   -0.57129E-07  2147   0.205E-03    0.106E-03
RMM:   5    -0.115745777412E+04   -0.50597E-07   -0.22656E-07  1684   0.182E-03    0.120E-03
RMM:   6    -0.115745777417E+04   -0.46231E-07   -0.15742E-07  1339   0.183E-03    0.829E-04
RMM:   7    -0.115745777422E+04   -0.49855E-07   -0.13578E-07  1257   0.181E-03    0.545E-04
RMM:   8    -0.115745777426E+04   -0.41589E-07   -0.13196E-07  1151   0.182E-03
   1 F= -.11574578E+04 E0= -.11574578E+04  d E =-.115746E+04  mag=    14.0000
       N       E                     dE             d eps       ncg     rms          rms(c)
DAV:   1    -0.115745792340E+04   -0.14918E-03   -0.16361E-01 12480   0.474E-01    0.123E-01
RMM:   2    -0.115745826431E+04   -0.34092E-03   -0.48390E-03 12264   0.891E-02    0.113E-01
RMM:   3    -0.115745824165E+04    0.22666E-04   -0.18270E-04  7702   0.275E-02    0.761E-02
RMM:   4    -0.115745821457E+04    0.27075E-04   -0.92570E-05  7116   0.125E-02    0.394E-02
RMM:   5    -0.115745821005E+04    0.45259E-05   -0.34247E-05  6883   0.874E-03    0.384E-02
RMM:   6    -0.115745821106E+04   -0.10122E-05   -0.11541E-05  6363   0.529E-03    0.928E-03
RMM:   7    -0.115745821138E+04   -0.31944E-06   -0.48677E-06  5291   0.348E-03    0.873E-03
RMM:   8    -0.115745821161E+04   -0.23181E-06   -0.29207E-06  4975   0.291E-03
   2 F= -.11574582E+04 E0= -.11574582E+04  d E =-.437349E-03  mag=    14.0000
       N       E                     dE             d eps       ncg     rms          rms(c)
DAV:   1    -0.115745843552E+04   -0.22414E-03   -0.37664E-02 12160   0.225E-01    0.654E-02
RMM:   2    -0.115745850263E+04   -0.67108E-04   -0.11744E-03 11982   0.440E-02    0.685E-02
RMM:   3    -0.115745849329E+04    0.93400E-05   -0.44872E-05  6711   0.134E-02    0.483E-02
RMM:   4    -0.115745848433E+04    0.89585E-05   -0.33319E-05  6703   0.706E-03    0.271E-02
RMM:   5    -0.115745848184E+04    0.24862E-05   -0.10472E-05  5904   0.490E-03    0.164E-02
RMM:   6    -0.115745848204E+04   -0.19287E-06   -0.34869E-06  4707   0.297E-03    0.696E-03
RMM:   7    -0.115745848208E+04   -0.39727E-07   -0.12404E-06  3109   0.242E-03    0.428E-03
RMM:   8    -0.115745848209E+04   -0.15658E-07   -0.50575E-07  2252   0.202E-03
   3 F= -.11574585E+04 E0= -.11574585E+04  d E =-.270482E-03  mag=    14.0000
