       N       E                     dE             d eps       ncg     rms          rms(c)
DAV:   1    -0.115717977505E+04   -0.11572E+04   -0.16811E-06  3576   0.208E-03    0.264E-03
RMM:   2    -0.115717977525E+04   -0.20031E-06   -0.24816E-07   841   0.132E-03    0.197E-03
RMM:   3    -0.115717977533E+04   -0.87006E-07   -0.94647E-08   597   0.122E-03    0.138E-03
RMM:   4    -0.115717977550E+04   -0.16452E-06   -0.15482E-07   613   0.128E-03    0.112E-03
RMM:   5    -0.115717977563E+04   -0.13634E-06   -0.14183E-07   576   0.128E-03    0.121E-03
RMM:   6    -0.115717977589E+04   -0.25342E-06   -0.30612E-07   729   0.146E-03    0.858E-04
RMM:   7    -0.115717977609E+04   -0.20530E-06   -0.37262E-07   659   0.145E-03    0.106E-03
RMM:   8    -0.115717977627E+04   -0.17474E-06   -0.29673E-07   648   0.148E-03
   1 F= -.11571798E+04 E0= -.11571798E+04  d E =-.115718E+04  mag=    14.0000
       N       E                     dE             d eps       ncg     rms          rms(c)
DAV:   1    -0.115717982960E+04   -0.53503E-04   -0.19919E-01  6248   0.520E-01    0.161E-01
RMM:   2    -0.115718012928E+04   -0.29968E-03   -0.63626E-03  6149   0.105E-01    0.161E-01
RMM:   3    -0.115718006948E+04    0.59800E-04   -0.26632E-04  4372   0.323E-02    0.110E-01
RMM:   4    -0.115718000335E+04    0.66127E-04   -0.16750E-04  3763   0.167E-02    0.634E-02
RMM:   5    -0.115717999193E+04    0.11425E-04   -0.75447E-05  3600   0.122E-02    0.558E-02
RMM:   6    -0.115717999262E+04   -0.69076E-06   -0.22315E-05  3345   0.790E-03    0.156E-02
RMM:   7    -0.115717999298E+04   -0.35881E-06   -0.88832E-06  3071   0.423E-03    0.133E-02
RMM:   8    -0.115717999334E+04   -0.36438E-06   -0.44953E-06  2769   0.362E-03
   2 F= -.11571800E+04 E0= -.11571800E+04  d E =-.217074E-03  mag=    14.0000
       N       E                     dE             d eps       ncg     rms          rms(c)
DAV:   1    -0.115718043060E+04   -0.43762E-03   -0.42996E-02  6160   0.235E-01    0.880E-02
RMM:   2    -0.115718047106E+04   -0.40458E-04   -0.16498E-03  6009   0.513E-02    0.925E-02
RMM:   3    -0.115718044623E+04    0.24826E-04   -0.62308E-05  3486   0.152E-02    0.656E-02
RMM:   4    -0.115718042019E+04    0.26049E-04   -0.69505E-05  3513   0.983E-03    0.349E-02
RMM:   5    -0.115718041528E+04    0.49015E-05   -0.24966E-05  3261   0.696E-03    0.353E-02
RMM:   6    -0.115718041519E+04    0.97585E-07   -0.69654E-06  2832   0.425E-03    0.102E-02
RMM:   7    -0.115718041517E+04    0.16866E-07   -0.22651E-06  2062   0.258E-03    0.809E-03
RMM:   8    -0.115718041522E+04   -0.49346E-07   -0.12509E-06  1851   0.226E-03
   3 F= -.11571804E+04 E0= -.11571804E+04  d E =-.421876E-03  mag=    14.0000
