       N       E                     dE             d eps       ncg     rms          rms(c)
DAV:   1    -0.116364803079E+04   -0.11636E+04   -0.54762E-05  5216   0.271E-02    0.579E-02
RMM:   2    -0.116364798622E+04    0.44578E-04   -0.11418E-04  4107   0.120E-02    0.505E-02
RMM:   3    -0.116364797773E+04    0.84856E-05   -0.23773E-05  3266   0.633E-03    0.103E-02
RMM:   4    -0.116364797823E+04   -0.50406E-06   -0.65402E-06  2790   0.339E-03    0.793E-03
RMM:   5    -0.116364797831E+04   -0.80196E-07   -0.34322E-06  2539   0.313E-03    0.443E-03
RMM:   6    -0.116364797846E+04   -0.14435E-06   -0.15792E-06  1695   0.239E-03    0.218E-03
RMM:   7    -0.116364797862E+04   -0.15780E-06   -0.10719E-06  1540   0.241E-03    0.127E-03
RMM:   8    -0.116364797868E+04   -0.67579E-07   -0.37327E-07  1103   0.203E-03
   1 F= -.11636480E+04 E0= -.11636465E+04  d E =-.116365E+04  mag=     5.9763
       N       E                     dE             d eps       ncg     rms          rms(c)
DAV:   1    -0.116365320672E+04   -0.52281E-02   -0.10876E+01  6384   0.377E+00    0.116E+00
RMM:   2    -0.116368285530E+04   -0.29649E-01   -0.37364E-01  6148   0.748E-01    0.140E+00
RMM:   3    -0.116367924638E+04    0.36089E-02   -0.14549E-02  6607   0.189E-01    0.107E+00
RMM:   4    -0.116367739951E+04    0.18469E-02   -0.75944E-03  6810   0.945E-02    0.612E-01
RMM:   5    -0.116367634143E+04    0.10581E-02   -0.38421E-03  6510   0.656E-02    0.175E-01
RMM:   6    -0.116367631208E+04    0.29350E-04   -0.40232E-04  5026   0.244E-02    0.939E-02
RMM:   7    -0.116367628313E+04    0.28951E-04   -0.14253E-04  4113   0.136E-02    0.597E-02
RMM:   8    -0.116367628586E+04   -0.27326E-05   -0.95211E-05  3843   0.132E-02
   2 F= -.11636763E+04 E0= -.11636749E+04  d E =-.283072E-01  mag=     5.9780
       N       E                     dE             d eps       ncg     rms          rms(c)
DAV:   1    -0.116368471433E+04   -0.84312E-02   -0.17017E+00  6464   0.147E+00    0.626E-01
RMM:   2    -0.116368819051E+04   -0.34762E-02   -0.65547E-02  6146   0.315E-01    0.729E-01
RMM:   3    -0.116368731353E+04    0.87697E-03   -0.28841E-03  6592   0.798E-02    0.573E-01
RMM:   4    -0.116368688675E+04    0.42679E-03   -0.30691E-03  6038   0.565E-02    0.271E-01
RMM:   5    -0.116368644262E+04    0.44413E-03   -0.88505E-04  5444   0.342E-02    0.829E-02
RMM:   6    -0.116368640695E+04    0.35662E-04   -0.95361E-05  3982   0.135E-02    0.526E-02
RMM:   7    -0.116368640136E+04    0.55917E-05   -0.54787E-05  3636   0.973E-03    0.274E-02
RMM:   8    -0.116368640404E+04   -0.26765E-05   -0.29451E-05  3515   0.798E-03
   3 F= -.11636864E+04 E0= -.11636851E+04  d E =-.101182E-01  mag=     5.9782
       N       E                     dE             d eps       ncg     rms          rms(c)
DAV:   1    -0.116368818767E+04   -0.17863E-02   -0.21764E+00  6392   0.173E+00    0.431E-01
RMM:   2    -0.116369404426E+04   -0.58566E-02   -0.64977E-02  6150   0.317E-01    0.422E-01
RMM:   3    -0.116369373561E+04    0.30865E-03   -0.28753E-03  6377   0.901E-02    0.291E-01
RMM:   4    -0.116369359624E+04    0.13937E-03   -0.10044E-03  5913   0.350E-02    0.161E-01
RMM:   5    -0.116369356399E+04    0.32249E-04   -0.46748E-04  5182   0.243E-02    0.450E-02
RMM:   6    -0.116369356963E+04   -0.56421E-05   -0.66552E-05  3706   0.131E-02    0.286E-02
RMM:   7    -0.116369357133E+04   -0.17027E-05   -0.35580E-05  3561   0.746E-03    0.197E-02
RMM:   8    -0.116369357556E+04   -0.42308E-05   -0.19771E-05  3484   0.698E-03
   4 F= -.11636936E+04 E0= -.11636922E+04  d E =-.717152E-02  mag=     5.9778
       N       E                     dE             d eps       ncg     rms          rms(c)
DAV:   1    -0.116369479589E+04   -0.12246E-02   -0.11606E+00  6384   0.127E+00    0.291E-01
RMM:   2    -0.116369719199E+04   -0.23961E-02   -0.30411E-02  6168   0.216E-01    0.223E-01
RMM:   3    -0.116369707328E+04    0.11870E-03   -0.14553E-03  6073   0.708E-02    0.144E-01
RMM:   4    -0.116369699962E+04    0.73658E-04   -0.51162E-04  5373   0.255E-02    0.830E-02
RMM:   5    -0.116369696478E+04    0.34840E-04   -0.11309E-04  3870   0.166E-02    0.252E-02
RMM:   6    -0.116369696987E+04   -0.50895E-05   -0.44827E-05  3557   0.952E-03    0.143E-02
RMM:   7    -0.116369697186E+04   -0.19848E-05   -0.24027E-05  3457   0.773E-03    0.111E-02
RMM:   8    -0.116369697366E+04   -0.18061E-05   -0.16107E-05  3283   0.524E-03
   5 F= -.11636970E+04 E0= -.11636956E+04  d E =-.339810E-02  mag=     5.9776
       N       E                     dE             d eps       ncg     rms          rms(c)
DAV:   1    -0.116369767764E+04   -0.70578E-03   -0.50386E-01  6368   0.825E-01    0.150E-01
RMM:   2    -0.116369873664E+04   -0.10590E-02   -0.12711E-02  6192   0.140E-01    0.120E-01
RMM:   3    -0.116369870361E+04    0.33033E-04   -0.59600E-04  5171   0.458E-02    0.814E-02
RMM:   4    -0.116369866975E+04    0.33856E-04   -0.18209E-04  3823   0.159E-02    0.481E-02
RMM:   5    -0.116369866019E+04    0.95570E-05   -0.61216E-05  3571   0.113E-02    0.152E-02
RMM:   6    -0.116369866306E+04   -0.28709E-05   -0.23210E-05  3476   0.713E-03    0.110E-02
RMM:   7    -0.116369866433E+04   -0.12604E-05   -0.11964E-05  3323   0.524E-03    0.857E-03
RMM:   8    -0.116369866537E+04   -0.10426E-05   -0.75169E-06  3088   0.406E-03
   6 F= -.11636987E+04 E0= -.11636974E+04  d E =-.169170E-02  mag=     5.9781
       N       E                     dE             d eps       ncg     rms          rms(c)
DAV:   1    -0.116369916925E+04   -0.50492E-03   -0.39638E-01  6392   0.724E-01    0.125E-01
RMM:   2    -0.116369999525E+04   -0.82600E-03   -0.96083E-03  6194   0.120E-01    0.913E-02
RMM:   3    -0.116369996995E+04    0.25301E-04   -0.41641E-04  4493   0.382E-02    0.616E-02
RMM:   4    -0.116369994507E+04    0.24877E-04   -0.12849E-04  3617   0.138E-02    0.377E-02
RMM:   5    -0.116369993962E+04    0.54485E-05   -0.38681E-05  3501   0.940E-03    0.154E-02
RMM:   6    -0.116369994136E+04   -0.17390E-05   -0.17264E-05  3419   0.596E-03    0.988E-03
RMM:   7    -0.116369994233E+04   -0.96901E-06   -0.90853E-06  3190   0.487E-03    0.716E-03
RMM:   8    -0.116369994307E+04   -0.73851E-06   -0.59843E-06  2690   0.351E-03
   7 F= -.11636999E+04 E0= -.11636986E+04  d E =-.127770E-02  mag=     5.9778
       N       E                     dE             d eps       ncg     rms          rms(c)
DAV:   1    -0.116370038174E+04   -0.43941E-03   -0.27015E-01  6272   0.594E-01    0.984E-02
RMM:   2    -0.116370095965E+04   -0.57791E-03   -0.64897E-03  6178   0.979E-02    0.641E-02
RMM:   3    -0.116370094514E+04    0.14514E-04   -0.28387E-04  4133   0.325E-02    0.435E-02
RMM:   4    -0.116370093117E+04    0.13962E-04   -0.93022E-05  3549   0.117E-02    0.234E-02
RMM:   5    -0.116370093090E+04    0.27231E-06   -0.23917E-05  3443   0.739E-03    0.103E-02
RMM:   6    -0.116370093227E+04   -0.13722E-05   -0.11700E-05  3266   0.476E-03    0.747E-03
RMM:   7    -0.116370093299E+04   -0.71355E-06   -0.62459E-06  2809   0.404E-03    0.497E-03
RMM:   8    -0.116370093353E+04   -0.54530E-06   -0.41022E-06  2321   0.298E-03
   8 F= -.11637009E+04 E0= -.11636996E+04  d E =-.990463E-03  mag=     5.9779
       N       E                     dE             d eps       ncg     rms          rms(c)
DAV:   1    -0.116370120240E+04   -0.26941E-03   -0.47111E-01  6336   0.784E-01    0.130E-01
RMM:   2    -0.116370221277E+04   -0.10104E-02   -0.11161E-02  6197   0.128E-01    0.865E-02
RMM:   3    -0.116370219410E+04    0.18670E-04   -0.51612E-04  4777   0.426E-02    0.584E-02
RMM:   4    -0.116370217117E+04    0.22928E-04   -0.12991E-04  3618   0.141E-02    0.359E-02
RMM:   5    -0.116370216876E+04    0.24185E-05   -0.37886E-05  3472   0.937E-03    0.133E-02
RMM:   6    -0.116370217098E+04   -0.22296E-05   -0.17907E-05  3383   0.595E-03    0.910E-03
RMM:   7    -0.116370217198E+04   -0.99535E-06   -0.94488E-06  3098   0.497E-03    0.623E-03
RMM:   8    -0.116370217272E+04   -0.73612E-06   -0.62605E-06  2621   0.351E-03
   9 F= -.11637022E+04 E0= -.11637009E+04  d E =-.123918E-02  mag=     5.9779
