       N       E                     dE             d eps       ncg     rms          rms(c)
DAV:   1    -0.116191447652E+04   -0.11619E+04   -0.62766E-07  3120   0.128E-03    0.877E-04
RMM:   2    -0.116191447652E+04    0.13824E-08    0.00000E+00   355   0.585E-04    0.525E-04
RMM:   3    -0.116191447652E+04    0.78580E-09    0.00000E+00   219   0.589E-04    0.278E-04
RMM:   4    -0.116191447652E+04   -0.11642E-09    0.00000E+00   168   0.595E-04    0.829E-05
RMM:   5    -0.116191447652E+04    0.64028E-09    0.00000E+00   130   0.596E-04    0.296E-05
RMM:   6    -0.116191447652E+04    0.72760E-10    0.00000E+00   102   0.598E-04    0.168E-05
RMM:   7    -0.116191447652E+04    0.58208E-10    0.00000E+00   101   0.599E-04    0.107E-05
RMM:   8    -0.116191447652E+04   -0.87311E-10    0.00000E+00    86   0.600E-04
   1 F= -.11619145E+04 E0= -.11619144E+04  d E =-.116191E+04  mag=     4.0011
       N       E                     dE             d eps       ncg     rms          rms(c)
DAV:   1    -0.116191415696E+04    0.31956E-03   -0.56109E-02  6080   0.258E-01    0.585E-02
RMM:   2    -0.116191426843E+04   -0.11147E-03   -0.13659E-03  6063   0.461E-02    0.404E-02
RMM:   3    -0.116191426517E+04    0.32603E-05   -0.65842E-05  3163   0.155E-02    0.254E-02
RMM:   4    -0.116191425930E+04    0.58711E-05   -0.24023E-05  3143   0.650E-03    0.141E-02
RMM:   5    -0.116191425883E+04    0.46445E-06   -0.72809E-06  2690   0.363E-03    0.456E-03
RMM:   6    -0.116191425905E+04   -0.21580E-06   -0.18209E-06  1770   0.253E-03    0.308E-03
RMM:   7    -0.116191425917E+04   -0.11596E-06   -0.76891E-07  1135   0.205E-03    0.207E-03
RMM:   8    -0.116191425924E+04   -0.76441E-07   -0.30607E-07   947   0.194E-03
   2 F= -.11619143E+04 E0= -.11619141E+04  d E =0.217277E-03  mag=     4.0011
       N       E                     dE             d eps       ncg     rms          rms(c)
DAV:   1    -0.116191402942E+04    0.22975E-03   -0.30442E-02  6048   0.184E-01    0.430E-02
RMM:   2    -0.116191407796E+04   -0.48537E-04   -0.77998E-04  5678   0.344E-02    0.333E-02
RMM:   3    -0.116191407331E+04    0.46451E-05   -0.39171E-05  3130   0.112E-02    0.215E-02
RMM:   4    -0.116191406847E+04    0.48370E-05   -0.18546E-05  2991   0.559E-03    0.116E-02
RMM:   5    -0.116191406775E+04    0.72754E-06   -0.52562E-06  2552   0.332E-03    0.546E-03
RMM:   6    -0.116191406790E+04   -0.15827E-06   -0.12904E-06  1381   0.237E-03    0.369E-03
RMM:   7    -0.116191406802E+04   -0.11946E-06   -0.61393E-07  1079   0.202E-03    0.225E-03
RMM:   8    -0.116191406816E+04   -0.13971E-06   -0.32400E-07   963   0.196E-03
   3 F= -.11619141E+04 E0= -.11619139E+04  d E =0.191079E-03  mag=     4.0011
       N       E                     dE             d eps       ncg     rms          rms(c)
DAV:   1    -0.116191380334E+04    0.26469E-03   -0.38022E-02  6080   0.205E-01    0.459E-02
RMM:   2    -0.116191387070E+04   -0.67365E-04   -0.92543E-04  5791   0.371E-02    0.324E-02
RMM:   3    -0.116191386734E+04    0.33638E-05   -0.46702E-05  3258   0.122E-02    0.208E-02
RMM:   4    -0.116191386277E+04    0.45717E-05   -0.18523E-05  3157   0.570E-03    0.112E-02
RMM:   5    -0.116191386242E+04    0.34242E-06   -0.59392E-06  2617   0.337E-03    0.402E-03
RMM:   6    -0.116191386265E+04   -0.22308E-06   -0.15332E-06  1587   0.246E-03    0.301E-03
RMM:   7    -0.116191386280E+04   -0.15578E-06   -0.77525E-07  1205   0.207E-03    0.224E-03
RMM:   8    -0.116191386295E+04   -0.14491E-06   -0.42591E-07  1047   0.199E-03
   4 F= -.11619139E+04 E0= -.11619137E+04  d E =0.205215E-03  mag=     4.0011
       N       E                     dE             d eps       ncg     rms          rms(c)
DAV:   1    -0.116191349119E+04    0.37161E-03   -0.53163E-02  6112   0.247E-01    0.526E-02
RMM:   2    -0.116191358218E+04   -0.90986E-04   -0.13331E-03  6058   0.445E-02    0.365E-02
RMM:   3    -0.116191357470E+04    0.74834E-05   -0.66419E-05  3416   0.151E-02    0.232E-02
RMM:   4    -0.116191356794E+04    0.67510E-05   -0.30586E-05  3360   0.696E-03    0.109E-02
RMM:   5    -0.116191356769E+04    0.25282E-06   -0.72161E-06  2834   0.376E-03    0.503E-03
RMM:   6    -0.116191356795E+04   -0.26041E-06   -0.21822E-06  1878   0.262E-03    0.354E-03
RMM:   7    -0.116191356811E+04   -0.15604E-06   -0.98845E-07  1281   0.222E-03    0.230E-03
RMM:   8    -0.116191356825E+04   -0.14031E-06   -0.45676E-07  1096   0.210E-03
   5 F= -.11619136E+04 E0= -.11619134E+04  d E =0.294700E-03  mag=     4.0011
       N       E                     dE             d eps       ncg     rms          rms(c)
DAV:   1    -0.116191310606E+04    0.46205E-03   -0.89499E-02  6112   0.321E-01    0.664E-02
RMM:   2    -0.116191326629E+04   -0.16023E-03   -0.21882E-03  6129   0.573E-02    0.470E-02
RMM:   3    -0.116191325738E+04    0.89080E-05   -0.11013E-04  3541   0.187E-02    0.299E-02
RMM:   4    -0.116191324813E+04    0.92475E-05   -0.42587E-05  3443   0.835E-03    0.154E-02
RMM:   5    -0.116191324772E+04    0.40540E-06   -0.11656E-05  3138   0.469E-03    0.822E-03
RMM:   6    -0.116191324825E+04   -0.52890E-06   -0.42141E-06  2687   0.333E-03    0.596E-03
RMM:   7    -0.116191324855E+04   -0.29181E-06   -0.16710E-06  1663   0.242E-03    0.366E-03
RMM:   8    -0.116191324887E+04   -0.32350E-06   -0.86662E-07  1359   0.226E-03
   6 F= -.11619132E+04 E0= -.11619131E+04  d E =0.319379E-03  mag=     4.0012
       N       E                     dE             d eps       ncg     rms          rms(c)
DAV:   1    -0.116191287655E+04    0.37199E-03   -0.74980E-02  6176   0.295E-01    0.580E-02
RMM:   2    -0.116191302245E+04   -0.14589E-03   -0.18114E-03  6111   0.518E-02    0.379E-02
RMM:   3    -0.116191301828E+04    0.41652E-05   -0.88422E-05  3463   0.170E-02    0.241E-02
RMM:   4    -0.116191301344E+04    0.48412E-05   -0.31225E-05  3352   0.731E-03    0.119E-02
RMM:   5    -0.116191301378E+04   -0.34318E-06   -0.85862E-06  2867   0.399E-03    0.496E-03
RMM:   6    -0.116191301425E+04   -0.47105E-06   -0.28824E-06  2121   0.293E-03    0.343E-03
RMM:   7    -0.116191301453E+04   -0.27572E-06   -0.12995E-06  1419   0.230E-03    0.254E-03
RMM:   8    -0.116191301484E+04   -0.30886E-06   -0.74499E-07  1230   0.222E-03
   7 F= -.11619130E+04 E0= -.11619129E+04  d E =0.234030E-03  mag=     4.0011
       N       E                     dE             d eps       ncg     rms          rms(c)
DAV:   1    -0.116191260691E+04    0.40762E-03   -0.76145E-02  6176   0.300E-01    0.590E-02
RMM:   2    -0.116191275980E+04   -0.15289E-03   -0.18453E-03  6120   0.524E-02    0.378E-02
RMM:   3    -0.116191275540E+04    0.44019E-05   -0.87213E-05  3464   0.169E-02    0.239E-02
RMM:   4    -0.116191275092E+04    0.44731E-05   -0.31046E-05  3351   0.727E-03    0.111E-02
RMM:   5    -0.116191275141E+04   -0.48877E-06   -0.80951E-06  2889   0.401E-03    0.483E-03
RMM:   6    -0.116191275190E+04   -0.49330E-06   -0.28912E-06  2157   0.292E-03    0.334E-03
RMM:   7    -0.116191275215E+04   -0.24994E-06   -0.12775E-06  1466   0.233E-03    0.236E-03
RMM:   8    -0.116191275245E+04   -0.29292E-06   -0.67176E-07  1172   0.218E-03
   8 F= -.11619128E+04 E0= -.11619126E+04  d E =0.262391E-03  mag=     4.0011
       N       E                     dE             d eps       ncg     rms          rms(c)
DAV:   1    -0.116191244350E+04    0.30866E-03   -0.61573E-02  6144   0.272E-01    0.530E-02
RMM:   2    -0.116191256666E+04   -0.12316E-03   -0.15038E-03  6085   0.474E-02    0.332E-02
RMM:   3    -0.116191256294E+04    0.37210E-05   -0.72355E-05  3432   0.159E-02    0.214E-02
RMM:   4    -0.116191255958E+04    0.33563E-05   -0.27065E-05  3338   0.678E-03    0.102E-02
RMM:   5    -0.116191255999E+04   -0.41010E-06   -0.70067E-06  2783   0.376E-03    0.481E-03
RMM:   6    -0.116191256048E+04   -0.48376E-06   -0.24353E-06  1988   0.280E-03    0.322E-03
RMM:   7    -0.116191256078E+04   -0.30520E-06   -0.11501E-06  1409   0.230E-03    0.246E-03
RMM:   8    -0.116191256111E+04   -0.33154E-06   -0.71712E-07  1226   0.220E-03
   9 F= -.11619126E+04 E0= -.11619124E+04  d E =0.191333E-03  mag=     4.0011
