       N       E                     dE             d eps       ncg     rms          rms(c)
DAV:   1     0.119014245651E+05    0.11901E+05   -0.42039E+05  6168   0.131E+03
DAV:   2     0.642015822116E+03   -0.11259E+05   -0.10055E+05  6160   0.375E+02
DAV:   3    -0.136789850863E+04   -0.20099E+04   -0.19369E+04  6608   0.165E+02
DAV:   4    -0.150091274192E+04   -0.13301E+03   -0.13079E+03  8128   0.441E+01
DAV:   5    -0.150920516451E+04   -0.82924E+01   -0.82527E+01 11128   0.100E+01    0.179E+02
RMM:   6    -0.116556010902E+04    0.34365E+03   -0.15866E+03  6248   0.345E+01    0.105E+02
RMM:   7    -0.115177297488E+04    0.13787E+02   -0.61074E+01  6396   0.110E+01    0.657E+01
RMM:   8    -0.116637015079E+04   -0.14597E+02   -0.24305E+01  7046   0.555E+00    0.538E+01
RMM:   9    -0.119103917814E+04   -0.24669E+02   -0.14913E+02  7392   0.987E+00    0.738E+01
RMM:  10    -0.117221499781E+04    0.18824E+02   -0.19174E+01  6285   0.489E+00    0.349E+01
RMM:  11    -0.115705120292E+04    0.15164E+02   -0.11735E+01  6307   0.335E+00    0.254E+01
RMM:  12    -0.115727655322E+04   -0.22535E+00   -0.11494E+00  8312   0.789E-01    0.249E+01
RMM:  13    -0.115756281501E+04   -0.28626E+00   -0.17964E-01  8609   0.387E-01    0.241E+01
RMM:  14    -0.115871854911E+04   -0.11557E+01   -0.17750E+00  6403   0.138E+00    0.172E+01
RMM:  15    -0.115993633236E+04   -0.12178E+01   -0.26740E+00  6678   0.166E+00    0.112E+01
RMM:  16    -0.116145275161E+04   -0.15164E+01   -0.64133E-01  6928   0.889E-01    0.122E+01
RMM:  17    -0.116211622675E+04   -0.66348E+00   -0.33364E-01  6607   0.621E-01    0.109E+01
RMM:  18    -0.116195958666E+04    0.15664E+00   -0.65811E-01  6388   0.791E-01    0.825E+00
RMM:  19    -0.116183561050E+04    0.12398E+00   -0.30647E-01  6861   0.509E-01    0.580E+00
RMM:  20    -0.116172608180E+04    0.10953E+00   -0.49333E-01  6494   0.565E-01    0.261E+00
RMM:  21    -0.116184426402E+04   -0.11818E+00   -0.83067E-02  6731   0.295E-01    0.288E+00
RMM:  22    -0.116185167240E+04   -0.74084E-02   -0.14118E-02  7571   0.121E-01    0.265E+00
RMM:  23    -0.116196014970E+04   -0.10848E+00   -0.91279E-02  6150   0.366E-01    0.213E+00
RMM:  24    -0.116198255532E+04   -0.22406E-01   -0.67418E-02  6224   0.290E-01    0.138E+00
RMM:  25    -0.116198505607E+04   -0.25007E-02   -0.36516E-02  6366   0.204E-01    0.797E-01
RMM:  26    -0.116198522751E+04   -0.17145E-03   -0.14239E-02  6291   0.121E-01    0.500E-01
RMM:  27    -0.116198687129E+04   -0.16438E-02   -0.40105E-03  6040   0.569E-02    0.333E-01
RMM:  28    -0.116198706443E+04   -0.19315E-03   -0.12997E-03  5638   0.337E-02    0.188E-01
RMM:  29    -0.116198715434E+04   -0.89910E-04   -0.54499E-04  4960   0.236E-02
   1 F= -.11619872E+04 E0= -.11619872E+04  d E =-.116199E+04  mag=    -2.0046
       N       E                     dE             d eps       ncg     rms          rms(c)
DAV:   1    -0.116223288504E+04   -0.24582E+00   -0.18102E+02  7048   0.149E+01    0.560E+00
RMM:   2    -0.116281456363E+04   -0.58168E+00   -0.61884E+00  6205   0.307E+00    0.444E+00
RMM:   3    -0.116280319117E+04    0.11372E-01   -0.36955E-01  6456   0.108E+00    0.269E+00
RMM:   4    -0.116277752201E+04    0.25669E-01   -0.13427E-01  6881   0.400E-01    0.148E+00
RMM:   5    -0.116277263595E+04    0.48861E-02   -0.44478E-02  6879   0.246E-01    0.501E-01
RMM:   6    -0.116277236745E+04    0.26850E-03   -0.59062E-03  7785   0.890E-02    0.346E-01
RMM:   7    -0.116277242535E+04   -0.57902E-04   -0.22773E-03  7807   0.436E-02    0.206E-01
RMM:   8    -0.116277253140E+04   -0.10605E-03   -0.76844E-04  6107   0.273E-02    0.710E-02
RMM:   9    -0.116277258453E+04   -0.53131E-04   -0.24941E-04  4565   0.181E-02
   2 F= -.11627726E+04 E0= -.11627704E+04  d E =-.785430E+00  mag=    -2.0108
       N       E                     dE             d eps       ncg     rms          rms(c)
DAV:   1    -0.116277436488E+04   -0.18335E-02   -0.82345E-01  7112   0.102E+00    0.398E-01
RMM:   2    -0.116277664609E+04   -0.22812E-02   -0.26929E-02  6162   0.207E-01    0.366E-01
RMM:   3    -0.116277654494E+04    0.10115E-03   -0.16046E-03  6147   0.692E-02    0.240E-01
RMM:   4    -0.116277648096E+04    0.63978E-04   -0.83905E-04  5437   0.317E-02    0.130E-01
RMM:   5    -0.116277644300E+04    0.37958E-04   -0.25935E-04  4444   0.218E-02    0.466E-02
RMM:   6    -0.116277644814E+04   -0.51418E-05   -0.47461E-05  3831   0.103E-02    0.296E-02
RMM:   7    -0.116277645471E+04   -0.65717E-05   -0.26618E-05  3655   0.686E-03    0.195E-02
RMM:   8    -0.116277646655E+04   -0.11835E-04   -0.18186E-05  3601   0.636E-03
   3 F= -.11627765E+04 E0= -.11627736E+04  d E =-.789312E+00  mag=    -2.0149
       N       E                     dE             d eps       ncg     rms          rms(c)
DAV:   1    -0.116282782545E+04   -0.51371E-01   -0.83984E+01  6384   0.105E+01    0.241E+00
RMM:   2    -0.116302272430E+04   -0.19490E+00   -0.24485E+00  6242   0.199E+00    0.258E+00
RMM:   3    -0.116301357332E+04    0.91510E-02   -0.13200E-01  6520   0.663E-01    0.181E+00
RMM:   4    -0.116300371229E+04    0.98610E-02   -0.40689E-02  7109   0.221E-01    0.120E+00
RMM:   5    -0.116299875776E+04    0.49545E-02   -0.19418E-02  6721   0.147E-01    0.359E-01
RMM:   6    -0.116299892259E+04   -0.16483E-03   -0.44171E-03  7231   0.712E-02    0.170E-01
RMM:   7    -0.116299885477E+04    0.67824E-04   -0.10758E-03  6923   0.276E-02    0.121E-01
RMM:   8    -0.116299888994E+04   -0.35170E-04   -0.47991E-04  5407   0.221E-02
   4 F= -.11629989E+04 E0= -.11629976E+04  d E =-.222423E+00  mag=    -2.0077
       N       E                     dE             d eps       ncg     rms          rms(c)
DAV:   1    -0.116299946152E+04   -0.60676E-03   -0.22441E+00  6800   0.173E+00    0.395E-01
RMM:   2    -0.116300458687E+04   -0.51254E-02   -0.65664E-02  6232   0.324E-01    0.414E-01
RMM:   3    -0.116300433017E+04    0.25670E-03   -0.35844E-03  6437   0.109E-01    0.295E-01
RMM:   4    -0.116300407666E+04    0.25352E-03   -0.12273E-03  6075   0.380E-02    0.189E-01
RMM:   5    -0.116300395542E+04    0.12123E-03   -0.54839E-04  5328   0.264E-02    0.598E-02
RMM:   6    -0.116300395265E+04    0.27716E-05   -0.10110E-04  3941   0.141E-02    0.297E-02
RMM:   7    -0.116300395207E+04    0.58400E-06   -0.39472E-05  3693   0.858E-03    0.195E-02
RMM:   8    -0.116300395447E+04   -0.24024E-05   -0.22784E-05  3591   0.740E-03
   5 F= -.11630040E+04 E0= -.11630030E+04  d E =-.227488E+00  mag=    -2.0053
       N       E                     dE             d eps       ncg     rms          rms(c)
DAV:   1    -0.116299324918E+04    0.10703E-01   -0.35802E+01  6320   0.697E+00    0.172E+00
RMM:   2    -0.116307808427E+04   -0.84835E-01   -0.10262E+00  6234   0.131E+00    0.168E+00
RMM:   3    -0.116307435582E+04    0.37284E-02   -0.54978E-02  6579   0.436E-01    0.113E+00
RMM:   4    -0.116307054518E+04    0.38106E-02   -0.19372E-02  7180   0.150E-01    0.638E-01
RMM:   5    -0.116306953932E+04    0.10059E-02   -0.64524E-03  6857   0.839E-02    0.182E-01
RMM:   6    -0.116306946771E+04    0.71603E-04   -0.13139E-03  6750   0.381E-02    0.963E-02
RMM:   7    -0.116306945959E+04    0.81209E-05   -0.36425E-04  5115   0.171E-02    0.663E-02
RMM:   8    -0.116306948761E+04   -0.28011E-04   -0.17703E-04  4280   0.161E-02
   6 F= -.11630695E+04 E0= -.11630695E+04  d E =-.655331E-01  mag=    -2.0004
       N       E                     dE             d eps       ncg     rms          rms(c)
DAV:   1    -0.116306948899E+04   -0.29395E-04   -0.17885E-02  6904   0.156E-01    0.463E-02
RMM:   2    -0.116306953293E+04   -0.43944E-04   -0.52605E-04  5221   0.307E-02    0.382E-02
RMM:   3    -0.116306953476E+04   -0.18303E-05   -0.32248E-05  3529   0.116E-02    0.227E-02
RMM:   4    -0.116306953817E+04   -0.34025E-05   -0.14960E-05  3430   0.534E-03    0.133E-02
RMM:   5    -0.116306954199E+04   -0.38288E-05   -0.66131E-06  2915   0.378E-03    0.801E-03
RMM:   6    -0.116306954435E+04   -0.23602E-05   -0.35882E-06  2284   0.285E-03    0.532E-03
RMM:   7    -0.116306954694E+04   -0.25873E-05   -0.23327E-06  1942   0.267E-03    0.493E-03
RMM:   8    -0.116306954989E+04   -0.29446E-05   -0.25577E-06  1802   0.247E-03
   7 F= -.11630695E+04 E0= -.11630695E+04  d E =-.655954E-01  mag=    -2.0000
       N       E                     dE             d eps       ncg     rms          rms(c)
DAV:   1    -0.116304723320E+04    0.22314E-01   -0.32586E+01  6304   0.664E+00    0.160E+00
RMM:   2    -0.116312537797E+04   -0.78145E-01   -0.83689E-01  6255   0.117E+00    0.117E+00
RMM:   3    -0.116312532942E+04    0.48549E-04   -0.46189E-02  6480   0.417E-01    0.719E-01
RMM:   4    -0.116312315348E+04    0.21759E-02   -0.15514E-02  7641   0.133E-01    0.376E-01
RMM:   5    -0.116312282612E+04    0.32736E-03   -0.40141E-03  7343   0.617E-02    0.135E-01
RMM:   6    -0.116312284605E+04   -0.19934E-04   -0.76545E-04  6451   0.290E-02    0.797E-02
RMM:   7    -0.116312288876E+04   -0.42713E-04   -0.29562E-04  4871   0.168E-02    0.483E-02
RMM:   8    -0.116312293372E+04   -0.44958E-04   -0.17632E-04  4306   0.140E-02
   8 F= -.11631229E+04 E0= -.11631229E+04  d E =-.533838E-01  mag=    -2.0000
       N       E                     dE             d eps       ncg     rms          rms(c)
DAV:   1    -0.116311880662E+04    0.40821E-02   -0.33246E+00  6624   0.212E+00    0.506E-01
RMM:   2    -0.116312671491E+04   -0.79083E-02   -0.85431E-02  6271   0.373E-01    0.372E-01
RMM:   3    -0.116312672096E+04   -0.60567E-05   -0.48078E-03  6451   0.131E-01    0.230E-01
RMM:   4    -0.116312651053E+04    0.21044E-03   -0.16429E-03  7172   0.438E-02    0.119E-01
RMM:   5    -0.116312650606E+04    0.44666E-05   -0.47010E-04  5474   0.227E-02    0.443E-02
RMM:   6    -0.116312652144E+04   -0.15378E-04   -0.88578E-05  3788   0.132E-02    0.283E-02
RMM:   7    -0.116312654370E+04   -0.22262E-04   -0.52161E-05  3651   0.945E-03    0.224E-02
RMM:   8    -0.116312657398E+04   -0.30282E-04   -0.39101E-05  3572   0.832E-03
   9 F= -.11631266E+04 E0= -.11631266E+04  d E =-.570241E-01  mag=    -2.0000
       N       E                     dE             d eps       ncg     rms          rms(c)
DAV:   1    -0.116307867893E+04    0.47865E-01   -0.35222E+01  6272   0.685E+00    0.170E+00
RMM:   2    -0.116316984412E+04   -0.91165E-01   -0.89612E-01  6324   0.120E+00    0.111E+00
RMM:   3    -0.116317183287E+04   -0.19887E-02   -0.46444E-02  6581   0.415E-01    0.663E-01
RMM:   4    -0.116316974865E+04    0.20842E-02   -0.13114E-02  7911   0.129E-01    0.339E-01
RMM:   5    -0.116316953797E+04    0.21067E-03   -0.35450E-03  7533   0.564E-02    0.922E-02
RMM:   6    -0.116316956385E+04   -0.25872E-04   -0.58212E-04  5939   0.265E-02    0.520E-02
RMM:   7    -0.116316961370E+04   -0.49858E-04   -0.31173E-04  4784   0.163E-02    0.349E-02
RMM:   8    -0.116316966042E+04   -0.46717E-04   -0.18940E-04  4218   0.139E-02
  10 F= -.11631697E+04 E0= -.11631697E+04  d E =-.430864E-01  mag=    -2.0000
       N       E                     dE             d eps       ncg     rms          rms(c)
DAV:   1    -0.116316401947E+04    0.55942E-02   -0.31253E+00  6432   0.204E+00    0.504E-01
RMM:   2    -0.116317221436E+04   -0.81949E-02   -0.80311E-02  6340   0.355E-01    0.332E-01
RMM:   3    -0.116317236836E+04   -0.15400E-03   -0.41448E-03  6552   0.122E-01    0.198E-01
RMM:   4    -0.116317221558E+04    0.15278E-03   -0.11967E-03  6910   0.395E-02    0.101E-01
RMM:   5    -0.116317224877E+04   -0.33188E-04   -0.37075E-04  5086   0.217E-02    0.335E-02
RMM:   6    -0.116317227687E+04   -0.28101E-04   -0.75150E-05  3699   0.130E-02    0.226E-02
RMM:   7    -0.116317231770E+04   -0.40832E-04   -0.65370E-05  3618   0.992E-03    0.208E-02
RMM:   8    -0.116317236477E+04   -0.47062E-04   -0.46798E-05  3538   0.868E-03
  11 F= -.11631724E+04 E0= -.11631724E+04  d E =-.457908E-01  mag=    -2.0000
       N       E                     dE             d eps       ncg     rms          rms(c)
DAV:   1    -0.116311946376E+04    0.52854E-01   -0.29883E+01  6304   0.621E+00    0.157E+00
RMM:   2    -0.116319882227E+04   -0.79359E-01   -0.74286E-01  6254   0.108E+00    0.105E+00
RMM:   3    -0.116320107237E+04   -0.22501E-02   -0.38472E-02  6508   0.371E-01    0.613E-01
RMM:   4    -0.116319934593E+04    0.17264E-02   -0.11043E-02  7779   0.115E-01    0.308E-01
RMM:   5    -0.116319924257E+04    0.10336E-03   -0.31684E-03  7356   0.521E-02    0.854E-02
RMM:   6    -0.116319925281E+04   -0.10235E-04   -0.44921E-04  5378   0.241E-02    0.505E-02
RMM:   7    -0.116319933000E+04   -0.77188E-04   -0.25148E-04  4559   0.155E-02    0.324E-02
RMM:   8    -0.116319940355E+04   -0.73549E-04   -0.16958E-04  4169   0.135E-02
  12 F= -.11631994E+04 E0= -.11631994E+04  d E =-.270388E-01  mag=    -2.0000
       N       E                     dE             d eps       ncg     rms          rms(c)
DAV:   1    -0.116319859545E+04    0.73454E-03   -0.48355E-01  6824   0.790E-01    0.199E-01
RMM:   2    -0.116319996529E+04   -0.13698E-02   -0.12430E-02  6321   0.138E-01    0.136E-01
RMM:   3    -0.116320001972E+04   -0.54427E-04   -0.64283E-04  5381   0.450E-02    0.821E-02
RMM:   4    -0.116320006708E+04   -0.47363E-04   -0.21226E-04  3976   0.174E-02    0.445E-02
RMM:   5    -0.116320016157E+04   -0.94492E-04   -0.11607E-04  3679   0.125E-02    0.257E-02
RMM:   6    -0.116320020422E+04   -0.42645E-04   -0.41216E-05  3498   0.865E-03    0.242E-02
RMM:   7    -0.116320024573E+04   -0.41514E-04   -0.35324E-05  3386   0.652E-03    0.243E-02
RMM:   8    -0.116320025554E+04   -0.98042E-05   -0.15035E-05  3246   0.523E-03
  13 F= -.11632003E+04 E0= -.11632003E+04  d E =-.278908E-01  mag=    -2.0000
       N       E                     dE             d eps       ncg     rms          rms(c)
DAV:   1    -0.116318493802E+04    0.15308E-01   -0.14300E+01  6368   0.434E+00    0.936E-01
RMM:   2    -0.116321862022E+04   -0.33682E-01   -0.34928E-01  6260   0.731E-01    0.642E-01
RMM:   3    -0.116321877558E+04   -0.15536E-03   -0.17490E-02  6352   0.253E-01    0.402E-01
RMM:   4    -0.116321804403E+04    0.73155E-03   -0.54152E-03  7807   0.795E-02    0.197E-01
RMM:   5    -0.116321812427E+04   -0.80247E-04   -0.14680E-03  7134   0.361E-02    0.636E-02
RMM:   6    -0.116321819734E+04   -0.73068E-04   -0.23799E-04  4503   0.184E-02    0.442E-02
RMM:   7    -0.116321831316E+04   -0.11582E-03   -0.17198E-04  4043   0.131E-02    0.353E-02
RMM:   8    -0.116321845457E+04   -0.14141E-03   -0.13217E-04  3794   0.125E-02    0.339E-02
RMM:   9    -0.116321854850E+04   -0.93927E-04   -0.79062E-05  3631   0.953E-03
  14 F= -.11632185E+04 E0= -.11632185E+04  d E =-.182930E-01  mag=    -2.0000
       N       E                     dE             d eps       ncg     rms          rms(c)
DAV:   1    -0.116321578790E+04    0.26667E-02   -0.20242E+00  6432   0.163E+00    0.353E-01
RMM:   2    -0.116322070030E+04   -0.49124E-02   -0.49943E-02  6319   0.276E-01    0.245E-01
RMM:   3    -0.116322078194E+04   -0.81639E-04   -0.25363E-03  6332   0.944E-02    0.156E-01
RMM:   4    -0.116322083417E+04   -0.52229E-04   -0.81624E-04  6244   0.324E-02    0.813E-02
RMM:   5    -0.116322103019E+04   -0.19603E-03   -0.28950E-04  4344   0.218E-02    0.446E-02
RMM:   6    -0.116322113091E+04   -0.10072E-03   -0.89905E-05  3643   0.127E-02    0.380E-02
RMM:   7    -0.116322124478E+04   -0.11387E-03   -0.96105E-05  3571   0.998E-03    0.378E-02
RMM:   8    -0.116322139612E+04   -0.15133E-03   -0.77916E-05  3503   0.942E-03    0.371E-02
RMM:   9    -0.116322144849E+04   -0.52374E-04   -0.33175E-05  3343   0.648E-03
  15 F= -.11632214E+04 E0= -.11632214E+04  d E =-.211930E-01  mag=    -2.0000
       N       E                     dE             d eps       ncg     rms          rms(c)
DAV:   1    -0.116320809061E+04    0.13306E-01   -0.12887E+01  6368   0.414E+00    0.781E-01
RMM:   2    -0.116323589427E+04   -0.27804E-01   -0.31772E-01  6190   0.698E-01    0.578E-01
RMM:   3    -0.116323560830E+04    0.28596E-03   -0.16209E-02  6245   0.248E-01    0.376E-01
RMM:   4    -0.116323524609E+04    0.36221E-03   -0.58799E-03  7751   0.811E-02    0.216E-01
RMM:   5    -0.116323528948E+04   -0.43390E-04   -0.14689E-03  7152   0.365E-02    0.767E-02
RMM:   6    -0.116323550593E+04   -0.21645E-03   -0.30883E-04  4668   0.201E-02    0.604E-02
RMM:   7    -0.116323577386E+04   -0.26793E-03   -0.23237E-04  4154   0.153E-02    0.544E-02
RMM:   8    -0.116323610769E+04   -0.33383E-03   -0.22326E-04  3965   0.151E-02    0.539E-02
RMM:   9    -0.116323639500E+04   -0.28731E-03   -0.15635E-04  3785   0.128E-02    0.507E-02
RMM:  10    -0.116323631024E+04    0.84751E-04   -0.42336E-05  3528   0.967E-03
  16 F= -.11632363E+04 E0= -.11632363E+04  d E =-.148618E-01  mag=    -2.0000
       N       E                     dE             d eps       ncg     rms          rms(c)
DAV:   1    -0.116323619924E+04    0.19576E-03   -0.23360E-01  6672   0.558E-01    0.116E-01
RMM:   2    -0.116323699276E+04   -0.79352E-03   -0.60244E-03  6326   0.959E-02    0.935E-02
RMM:   3    -0.116323717493E+04   -0.18217E-03   -0.32200E-04  4370   0.340E-02    0.735E-02
RMM:   4    -0.116323758379E+04   -0.40886E-03   -0.26466E-04  3872   0.179E-02    0.600E-02
RMM:   5    -0.116323803566E+04   -0.45186E-03   -0.24468E-04  3872   0.146E-02    0.554E-02
RMM:   6    -0.116323814012E+04   -0.10447E-03   -0.65069E-05  3512   0.893E-03    0.541E-02
RMM:   7    -0.116323841610E+04   -0.27597E-03   -0.12619E-04  3415   0.882E-03    0.564E-02
RMM:   8    -0.116323846208E+04   -0.45981E-04   -0.25108E-05  3032   0.553E-03
  17 F= -.11632385E+04 E0= -.11632385E+04  d E =-.170136E-01  mag=    -2.0000
       N       E                     dE             d eps       ncg     rms          rms(c)
DAV:   1    -0.116323451207E+04    0.39040E-02   -0.47995E+00  6416   0.254E+00    0.491E-01
RMM:   2    -0.116324518868E+04   -0.10677E-01   -0.12024E-01  6182   0.431E-01    0.407E-01
RMM:   3    -0.116324520956E+04   -0.20883E-04   -0.59684E-03  6193   0.149E-01    0.270E-01
RMM:   4    -0.116324549197E+04   -0.28241E-03   -0.24075E-03  7012   0.525E-02    0.160E-01
RMM:   5    -0.116324593380E+04   -0.44182E-03   -0.83894E-04  5717   0.293E-02    0.658E-02
RMM:   6    -0.116324629950E+04   -0.36570E-03   -0.24307E-04  3926   0.176E-02    0.644E-02
RMM:   7    -0.116324658463E+04   -0.28513E-03   -0.15440E-04  3777   0.120E-02    0.639E-02
RMM:   8    -0.116324685610E+04   -0.27147E-03   -0.10570E-04  3641   0.108E-02    0.639E-02
RMM:   9    -0.116324688373E+04   -0.27625E-04   -0.33788E-05  3446   0.722E-03
  18 F= -.11632469E+04 E0= -.11632469E+04  d E =-.842165E-02  mag=    -2.0000
       N       E                     dE             d eps       ncg     rms          rms(c)
DAV:   1    -0.116324641835E+04    0.43775E-03   -0.70564E-02  6728   0.310E-01    0.890E-02
RMM:   2    -0.116324703953E+04   -0.62118E-03   -0.20213E-03  6283   0.554E-02    0.840E-02
RMM:   3    -0.116324729298E+04   -0.25344E-03   -0.14115E-04  3637   0.212E-02    0.727E-02
RMM:   4    -0.116324801240E+04   -0.71942E-03   -0.37666E-04  3896   0.171E-02    0.676E-02
RMM:   5    -0.116324862217E+04   -0.60977E-03   -0.28658E-04  3802   0.139E-02    0.681E-02
RMM:   6    -0.116324840888E+04    0.21330E-03   -0.38011E-05  3421   0.883E-03    0.668E-02
RMM:   7    -0.116324746143E+04    0.94745E-03   -0.31453E-04  3775   0.188E-02    0.730E-02
RMM:   8    -0.116324321139E+04    0.42500E-02   -0.73787E-03  5119   0.797E-02    0.111E-01
RMM:   9    -0.116324286609E+04    0.34530E-03   -0.20943E-03  4653   0.375E-02    0.980E-02
RMM:  10    -0.116324189532E+04    0.97077E-03   -0.15077E-03  4450   0.298E-02    0.114E-01
RMM:  11    -0.116324074604E+04    0.11493E-02   -0.15643E-03  4360   0.330E-02    0.108E-01
RMM:  12    -0.116324085439E+04   -0.10835E-03   -0.39748E-04  3968   0.168E-02    0.105E-01
RMM:  13    -0.116323797001E+04    0.28844E-02   -0.62306E-03  5074   0.733E-02    0.887E-02
RMM:  14    -0.116323850133E+04   -0.53132E-03   -0.11693E-03  4353   0.257E-02    0.951E-02
RMM:  15    -0.116323828285E+04    0.21848E-03   -0.45779E-04  3608   0.128E-02    0.974E-02
RMM:  16    -0.116323960385E+04   -0.13210E-02   -0.13785E-03  4444   0.444E-02    0.831E-02
RMM:  17    -0.116323831558E+04    0.12883E-02   -0.16522E-03  4533   0.441E-02    0.608E-02
RMM:  18    -0.116323864606E+04   -0.33048E-03   -0.21815E-04  3638   0.153E-02    0.482E-02
RMM:  19    -0.116323731642E+04    0.13296E-02   -0.31892E-03  4667   0.534E-02    0.825E-02
RMM:  20    -0.116323686845E+04    0.44797E-03   -0.28740E-03  4612   0.430E-02    0.963E-02
RMM:  21    -0.116323705408E+04   -0.18563E-03   -0.32121E-04  3775   0.152E-02    0.882E-02
RMM:  22    -0.116323714129E+04   -0.87202E-04   -0.55301E-05  3177   0.931E-03
  19 F= -.11632371E+04 E0= -.11632371E+04  d E =0.132079E-02  mag=    -2.0000
       N       E                     dE             d eps       ncg     rms          rms(c)
DAV:   1    -0.116323513384E+04    0.19202E-02   -0.28462E+00  6360   0.196E+00    0.415E-01
RMM:   2    -0.116324153157E+04   -0.63977E-02   -0.72688E-02  6159   0.338E-01    0.316E-01
RMM:   3    -0.116324144275E+04    0.88820E-04   -0.36226E-03  6155   0.117E-01    0.204E-01
RMM:   4    -0.116324131114E+04    0.13161E-03   -0.12846E-03  6424   0.394E-02    0.115E-01
RMM:   5    -0.116324130838E+04    0.27647E-05   -0.31115E-04  4623   0.215E-02    0.426E-02
RMM:   6    -0.116324135122E+04   -0.42841E-04   -0.75171E-05  3623   0.129E-02    0.290E-02
RMM:   7    -0.116324139960E+04   -0.48375E-04   -0.53469E-05  3559   0.932E-03    0.243E-02
RMM:   8    -0.116324148166E+04   -0.82066E-04   -0.55755E-05  3517   0.932E-03
  20 F= -.11632415E+04 E0= -.11632415E+04  d E =-.434038E-02  mag=    -2.0000
       N       E                     dE             d eps       ncg     rms          rms(c)
DAV:   1    -0.116324152411E+04   -0.12452E-03   -0.48128E-02  6624   0.256E-01    0.572E-02
RMM:   2    -0.116324168688E+04   -0.16277E-03   -0.13120E-03  6073   0.454E-02    0.463E-02
RMM:   3    -0.116324171887E+04   -0.31987E-04   -0.66070E-05  3544   0.165E-02    0.349E-02
RMM:   4    -0.116324180028E+04   -0.81415E-04   -0.64730E-05  3549   0.916E-03    0.273E-02
RMM:   5    -0.116324187204E+04   -0.71760E-04   -0.44591E-05  3275   0.602E-03    0.253E-02
RMM:   6    -0.116324190996E+04   -0.37923E-04   -0.18469E-05  2952   0.498E-03    0.234E-02
RMM:   7    -0.116324194834E+04   -0.38379E-04   -0.19571E-05  2461   0.408E-03    0.243E-02
RMM:   8    -0.116324185495E+04    0.93391E-04   -0.23037E-05  2935   0.664E-03
  21 F= -.11632419E+04 E0= -.11632419E+04  d E =-.471367E-02  mag=    -2.0000
       N       E                     dE             d eps       ncg     rms          rms(c)
DAV:   1    -0.116324041242E+04    0.15359E-02   -0.16113E+00  6448   0.149E+00    0.315E-01
RMM:   2    -0.116324406906E+04   -0.36566E-02   -0.41611E-02  6162   0.256E-01    0.243E-01
RMM:   3    -0.116324404399E+04    0.25073E-04   -0.19809E-03  6136   0.858E-02    0.159E-01
RMM:   4    -0.116324402356E+04    0.20426E-04   -0.73759E-04  5799   0.303E-02    0.830E-02
RMM:   5    -0.116324410287E+04   -0.79302E-04   -0.20783E-04  4147   0.204E-02    0.332E-02
RMM:   6    -0.116324416751E+04   -0.64645E-04   -0.74761E-05  3601   0.115E-02    0.301E-02
RMM:   7    -0.116324422557E+04   -0.58058E-04   -0.48024E-05  3497   0.893E-03    0.292E-02
RMM:   8    -0.116324431311E+04   -0.87537E-04   -0.48884E-05  3451   0.804E-03
  22 F= -.11632443E+04 E0= -.11632443E+04  d E =-.245815E-02  mag=    -2.0000
       N       E                     dE             d eps       ncg     rms          rms(c)
DAV:   1    -0.116324438713E+04   -0.16156E-03   -0.73241E-03  6832   0.101E-01    0.348E-02
RMM:   2    -0.116324448557E+04   -0.98440E-04   -0.20388E-04  3798   0.192E-02    0.340E-02
RMM:   3    -0.116324453742E+04   -0.51855E-04   -0.32426E-05  3278   0.865E-03    0.303E-02
RMM:   4    -0.116324462461E+04   -0.87192E-04   -0.38742E-05  3155   0.693E-03    0.311E-02
RMM:   5    -0.116324471621E+04   -0.91593E-04   -0.36826E-05  2622   0.526E-03    0.306E-02
RMM:   6    -0.116324471556E+04    0.64632E-06   -0.74213E-06  2230   0.428E-03    0.302E-02
RMM:   7    -0.116324473025E+04   -0.14690E-04   -0.49861E-06  1610   0.288E-03    0.305E-02
RMM:   8    -0.116324466280E+04    0.67454E-04   -0.99487E-06  2064   0.475E-03
  23 F= -.11632447E+04 E0= -.11632447E+04  d E =-.280785E-02  mag=    -2.0000
       N       E                     dE             d eps       ncg     rms          rms(c)
DAV:   1    -0.116324378310E+04    0.94715E-03   -0.98727E-01  6416   0.116E+00    0.244E-01
RMM:   2    -0.116324601328E+04   -0.22302E-02   -0.25179E-02  6184   0.198E-01    0.196E-01
RMM:   3    -0.116324602517E+04   -0.11891E-04   -0.12234E-03  6048   0.664E-02    0.128E-01
RMM:   4    -0.116324609460E+04   -0.69425E-04   -0.46723E-04  5053   0.249E-02    0.748E-02
RMM:   5    -0.116324623999E+04   -0.14539E-03   -0.17104E-04  3781   0.184E-02    0.357E-02
RMM:   6    -0.116324633561E+04   -0.95628E-04   -0.81215E-05  3580   0.105E-02    0.343E-02
RMM:   7    -0.116324639983E+04   -0.64212E-04   -0.42003E-05  3434   0.797E-03    0.342E-02
RMM:   8    -0.116324638791E+04    0.11913E-04   -0.14920E-05  3202   0.557E-03
  24 F= -.11632464E+04 E0= -.11632464E+04  d E =-.172512E-02  mag=    -2.0000
       N       E                     dE             d eps       ncg     rms          rms(c)
DAV:   1    -0.116324639670E+04    0.31230E-05   -0.79467E-03  6640   0.104E-01    0.419E-02
RMM:   2    -0.116324653929E+04   -0.14258E-03   -0.22452E-04  3902   0.205E-02    0.415E-02
RMM:   3    -0.116324660800E+04   -0.68718E-04   -0.36422E-05  3253   0.916E-03    0.364E-02
RMM:   4    -0.116324673144E+04   -0.12344E-03   -0.54755E-05  3119   0.809E-03    0.369E-02
RMM:   5    -0.116324689121E+04   -0.15977E-03   -0.62422E-05  2685   0.664E-03    0.377E-02
RMM:   6    -0.116324682534E+04    0.65870E-04   -0.13670E-05  2562   0.615E-03    0.369E-02
RMM:   7    -0.116324680173E+04    0.23613E-04   -0.48701E-06  1607   0.266E-03    0.382E-02
RMM:   8    -0.116324663934E+04    0.16239E-03   -0.32506E-05  2726   0.641E-03    0.391E-02
RMM:   9    -0.116324525627E+04    0.13831E-02   -0.23124E-03  4584   0.475E-02    0.592E-02
RMM:  10    -0.116324503143E+04    0.22485E-03   -0.11531E-03  4202   0.276E-02    0.703E-02
RMM:  11    -0.116324511763E+04   -0.86199E-04   -0.26683E-04  3375   0.964E-03
  25 F= -.11632451E+04 E0= -.11632451E+04  d E =-.454831E-03  mag=    -2.0000
       N       E                     dE             d eps       ncg     rms          rms(c)
DAV:   1    -0.116324481125E+04    0.22018E-03   -0.49925E-01  6432   0.828E-01    0.196E-01
RMM:   2    -0.116324605208E+04   -0.12408E-02   -0.12668E-02  6240   0.142E-01    0.131E-01
RMM:   3    -0.116324610284E+04   -0.50758E-04   -0.62076E-04  5300   0.493E-02    0.870E-02
RMM:   4    -0.116324618868E+04   -0.85844E-04   -0.22429E-04  3833   0.190E-02    0.497E-02
RMM:   5    -0.116324632450E+04   -0.13582E-03   -0.12828E-04  3659   0.135E-02    0.393E-02
RMM:   6    -0.116324637919E+04   -0.54689E-04   -0.40393E-05  3471   0.912E-03    0.315E-02
RMM:   7    -0.116324645619E+04   -0.76998E-04   -0.38090E-05  3344   0.694E-03    0.307E-02
RMM:   8    -0.116324649046E+04   -0.34277E-04   -0.17898E-05  3095   0.494E-03
  26 F= -.11632465E+04 E0= -.11632465E+04  d E =-.137283E-02  mag=    -2.0000
       N       E                     dE             d eps       ncg     rms          rms(c)
DAV:   1    -0.116324647578E+04   -0.19594E-04   -0.76135E-04  6304   0.329E-02    0.314E-02
RMM:   2    -0.116324657511E+04   -0.99329E-04   -0.41697E-05  3238   0.899E-03    0.318E-02
RMM:   3    -0.116324661877E+04   -0.43664E-04   -0.15835E-05  2628   0.436E-03    0.309E-02
RMM:   4    -0.116324667035E+04   -0.51580E-04   -0.16601E-05  2090   0.420E-03    0.310E-02
RMM:   5    -0.116324668781E+04   -0.17453E-04   -0.51810E-06  1619   0.248E-03    0.314E-02
RMM:   6    -0.116324617334E+04    0.51446E-03   -0.43837E-04  3664   0.213E-02    0.342E-02
RMM:   7    -0.116324579438E+04    0.37896E-03   -0.64453E-04  3640   0.209E-02    0.359E-02
RMM:   8    -0.116324542390E+04    0.37048E-03   -0.67358E-04  3821   0.220E-02    0.379E-02
RMM:   9    -0.116324493591E+04    0.48800E-03   -0.14446E-03  4235   0.300E-02    0.381E-02
RMM:  10    -0.116324495139E+04   -0.15481E-04   -0.31428E-04  3629   0.136E-02
  27 F= -.11632450E+04 E0= -.11632450E+04  d E =0.166242E-03  mag=    -2.0000
       N       E                     dE             d eps       ncg     rms          rms(c)
DAV:   1    -0.116324499370E+04   -0.57791E-04   -0.30699E-03  6304   0.653E-02    0.372E-02
RMM:   2    -0.116324505045E+04   -0.56756E-04   -0.89005E-05  3287   0.136E-02    0.357E-02
RMM:   3    -0.116324507141E+04   -0.20958E-04   -0.13506E-05  2966   0.565E-03    0.221E-02
RMM:   4    -0.116324511208E+04   -0.40667E-04   -0.14651E-05  2293   0.492E-03    0.207E-02
RMM:   5    -0.116324516813E+04   -0.56050E-04   -0.24253E-05  2370   0.477E-03    0.206E-02
RMM:   6    -0.116324520443E+04   -0.36307E-04   -0.15045E-05  1797   0.316E-03    0.197E-02
RMM:   7    -0.116324521222E+04   -0.77870E-05   -0.30234E-06  1450   0.252E-03    0.196E-02
RMM:   8    -0.116324523064E+04   -0.18422E-04   -0.44250E-06  1425   0.242E-03
  28 F= -.11632452E+04 E0= -.11632452E+04  d E =-.113015E-03  mag=    -2.0000
       N       E                     dE             d eps       ncg     rms          rms(c)
DAV:   1    -0.116324457316E+04    0.63907E-03   -0.49505E-01  6368   0.825E-01    0.173E-01
RMM:   2    -0.116324569746E+04   -0.11243E-02   -0.12705E-02  6178   0.142E-01    0.129E-01
RMM:   3    -0.116324570392E+04   -0.64650E-05   -0.62034E-04  5352   0.496E-02    0.839E-02
RMM:   4    -0.116324572222E+04   -0.18295E-04   -0.21208E-04  3858   0.183E-02    0.523E-02
RMM:   5    -0.116324576937E+04   -0.47152E-04   -0.72822E-05  3561   0.119E-02    0.321E-02
RMM:   6    -0.116324580793E+04   -0.38556E-04   -0.39147E-05  3467   0.865E-03    0.236E-02
RMM:   7    -0.116324584313E+04   -0.35198E-04   -0.25876E-05  3319   0.588E-03    0.226E-02
RMM:   8    -0.116324585852E+04   -0.15397E-04   -0.10726E-05  2951   0.470E-03
  29 F= -.11632459E+04 E0= -.11632459E+04  d E =-.627879E-03  mag=    -2.0000
