       N       E                     dE             d eps       ncg     rms          rms(c)
DAV:   1    -0.116514996209E+04   -0.11651E+04   -0.56491E-06  7680   0.479E-03    0.912E-03
RMM:   2    -0.116514996198E+04    0.10354E-06   -0.45547E-06  4956   0.274E-03    0.104E-02
RMM:   3    -0.116514996098E+04    0.10052E-05   -0.75970E-07  2898   0.197E-03    0.172E-03
RMM:   4    -0.116514996098E+04    0.14988E-08   -0.95157E-09  1143   0.181E-03    0.163E-03
RMM:   5    -0.116514996099E+04   -0.99972E-08   -0.18570E-07  1060   0.186E-03    0.361E-04
RMM:   6    -0.116514996099E+04   -0.26776E-08   -0.40522E-08   776   0.181E-03    0.161E-04
RMM:   7    -0.116514996099E+04   -0.18044E-08   -0.15940E-08   629   0.180E-03    0.120E-04
RMM:   8    -0.116514996099E+04    0.71304E-09   -0.41899E-09   544   0.179E-03
   1 F= -.11651500E+04 E0= -.11651446E+04  d E =-.116515E+04  mag=     2.1777
       N       E                     dE             d eps       ncg     rms          rms(c)
DAV:   1    -0.116515000503E+04   -0.44042E-04   -0.76174E-02 12224   0.317E-01    0.871E-02
RMM:   2    -0.116515009832E+04   -0.93283E-04   -0.24912E-03 12189   0.617E-02    0.820E-02
RMM:   3    -0.116515005776E+04    0.40559E-04   -0.82095E-05  7234   0.133E-02    0.542E-02
RMM:   4    -0.116515002852E+04    0.29242E-04   -0.95854E-05  7124   0.104E-02    0.258E-02
RMM:   5    -0.116515002060E+04    0.79142E-05   -0.19524E-05  6463   0.496E-03    0.118E-02
RMM:   6    -0.116515002048E+04    0.12633E-06   -0.48875E-06  5109   0.266E-03    0.889E-03
RMM:   7    -0.116515002045E+04    0.21100E-07   -0.13580E-06  3661   0.204E-03    0.543E-03
RMM:   8    -0.116515002046E+04   -0.31578E-08   -0.16185E-07  2844   0.188E-03
   2 F= -.11651500E+04 E0= -.11651447E+04  d E =-.594667E-04  mag=     2.1756
       N       E                     dE             d eps       ncg     rms          rms(c)
DAV:   1    -0.116515030452E+04   -0.28407E-03   -0.16424E-02 12272   0.145E-01    0.447E-02
RMM:   2    -0.116515030611E+04   -0.15907E-05   -0.59887E-04 11201   0.297E-02    0.441E-02
RMM:   3    -0.116515029269E+04    0.13427E-04   -0.22394E-05  6318   0.652E-03    0.292E-02
RMM:   4    -0.116515028198E+04    0.10707E-04   -0.33071E-05  6242   0.601E-03    0.130E-02
RMM:   5    -0.116515027925E+04    0.27299E-05   -0.54052E-06  4762   0.277E-03    0.743E-03
RMM:   6    -0.116515027905E+04    0.19860E-06   -0.16634E-07  2299   0.179E-03    0.485E-03
RMM:   7    -0.116515027907E+04   -0.19034E-07   -0.56905E-07  1845   0.191E-03    0.203E-03
RMM:   8    -0.116515027905E+04    0.15847E-07   -0.69850E-08  1134   0.186E-03
   3 F= -.11651503E+04 E0= -.11651449E+04  d E =-.258597E-03  mag=     2.1750
