       N       E                     dE             d eps       ncg     rms          rms(c)
DAV:   1    -0.116458936617E+04   -0.11646E+04   -0.53458E-06  6328   0.410E-03    0.110E-02
RMM:   2    -0.116458936485E+04    0.13168E-05   -0.53645E-06  4337   0.268E-03    0.148E-02
RMM:   3    -0.116458936448E+04    0.37465E-06   -0.35958E-07  2389   0.153E-03    0.474E-03
RMM:   4    -0.116458936444E+04    0.39028E-07   -0.40229E-07  1184   0.153E-03    0.200E-03
RMM:   5    -0.116458936444E+04    0.29104E-09   -0.14598E-07   772   0.137E-03    0.983E-04
RMM:   6    -0.116458936445E+04   -0.44092E-08   -0.79577E-08   581   0.134E-03    0.487E-04
RMM:   7    -0.116458936445E+04   -0.91968E-08   -0.50727E-08   357   0.133E-03    0.371E-04
RMM:   8    -0.116458936446E+04   -0.62137E-08   -0.26502E-08   242   0.132E-03
   1 F= -.11645894E+04 E0= -.11645884E+04  d E =-.116459E+04  mag=     3.9874
       N       E                     dE             d eps       ncg     rms          rms(c)
DAV:   1    -0.116458924649E+04    0.11797E-03   -0.65261E-01 12320   0.901E-01    0.239E-01
RMM:   2    -0.116459236447E+04   -0.31180E-02   -0.19233E-02 12252   0.174E-01    0.419E-01
RMM:   3    -0.116459224286E+04    0.12161E-03   -0.71481E-04 11050   0.351E-02    0.353E-01
RMM:   4    -0.116459220884E+04    0.34019E-04   -0.77231E-04 10681   0.264E-02    0.215E-01
RMM:   5    -0.116459231026E+04   -0.10142E-03   -0.75440E-04 10548   0.252E-02    0.805E-02
RMM:   6    -0.116459238571E+04   -0.75445E-04   -0.93511E-05  7946   0.101E-02    0.669E-02
RMM:   7    -0.116459246620E+04   -0.80494E-04   -0.60533E-05  7535   0.779E-03    0.600E-02
RMM:   8    -0.116459249871E+04   -0.32509E-04   -0.11062E-04  8060   0.101E-02
   2 F= -.11645925E+04 E0= -.11645916E+04  d E =-.313425E-02  mag=     3.9881
       N       E                     dE             d eps       ncg     rms          rms(c)
DAV:   1    -0.116459349550E+04   -0.10293E-02   -0.10220E-01 12072   0.356E-01    0.946E-02
RMM:   2    -0.116459398845E+04   -0.49295E-03   -0.29419E-03 12034   0.686E-02    0.160E-01
RMM:   3    -0.116459397715E+04    0.11303E-04   -0.89302E-05  7263   0.139E-02    0.144E-01
RMM:   4    -0.116459395931E+04    0.17835E-04   -0.89897E-05  7602   0.984E-03    0.820E-02
RMM:   5    -0.116459399373E+04   -0.34420E-04   -0.94658E-05  7506   0.892E-03    0.473E-02
RMM:   6    -0.116459400267E+04   -0.89413E-05   -0.28071E-05  6258   0.448E-03    0.330E-02
RMM:   7    -0.116459401855E+04   -0.15876E-04   -0.28522E-05  7035   0.518E-03    0.177E-02
RMM:   8    -0.116459402613E+04   -0.75777E-05   -0.13177E-05  5705   0.351E-03
   3 F= -.11645940E+04 E0= -.11645931E+04  d E =-.152742E-02  mag=     3.9882
       N       E                     dE             d eps       ncg     rms          rms(c)
DAV:   1    -0.116458893710E+04    0.50815E-02   -0.45080E-01 12472   0.746E-01    0.199E-01
RMM:   2    -0.116459104180E+04   -0.21047E-02   -0.12971E-02 12145   0.142E-01    0.347E-01
RMM:   3    -0.116459095632E+04    0.85476E-04   -0.45370E-04 10122   0.286E-02    0.292E-01
RMM:   4    -0.116459085412E+04    0.10220E-03   -0.59542E-04 10461   0.228E-02    0.148E-01
RMM:   5    -0.116459094647E+04   -0.92354E-04   -0.37295E-04  9699   0.183E-02    0.601E-02
RMM:   6    -0.116459099189E+04   -0.45411E-04   -0.52460E-05  7468   0.759E-03    0.537E-02
RMM:   7    -0.116459103761E+04   -0.45724E-04   -0.36198E-05  6975   0.609E-03    0.444E-02
RMM:   8    -0.116459106758E+04   -0.29969E-04   -0.76193E-05  7778   0.829E-03
   4 F= -.11645911E+04 E0= -.11645902E+04  d E =0.295855E-02  mag=     3.9884
       N       E                     dE             d eps       ncg     rms          rms(c)
DAV:   1    -0.116457943530E+04    0.11602E-01   -0.15396E+00 12872   0.139E+00    0.362E-01
RMM:   2    -0.116458668165E+04   -0.72463E-02   -0.43608E-02 12290   0.261E-01    0.612E-01
RMM:   3    -0.116458649521E+04    0.18644E-03   -0.16336E-03 11959   0.523E-02    0.530E-01
RMM:   4    -0.116458645337E+04    0.41846E-04   -0.17606E-03 11200   0.395E-02    0.307E-01
RMM:   5    -0.116458677582E+04   -0.32245E-03   -0.15327E-03 11062   0.362E-02    0.129E-01
RMM:   6    -0.116458695892E+04   -0.18311E-03   -0.21746E-04  8801   0.146E-02    0.113E-01
RMM:   7    -0.116458723501E+04   -0.27608E-03   -0.24847E-04  9088   0.156E-02    0.941E-02
RMM:   8    -0.116458732734E+04   -0.92332E-04   -0.33699E-04  9585   0.167E-02
   5 F= -.11645873E+04 E0= -.11645865E+04  d E =0.374024E-02  mag=     3.9887
       N       E                     dE             d eps       ncg     rms          rms(c)
DAV:   1    -0.116458057298E+04    0.66620E-02   -0.10042E+00 12736   0.113E+00    0.300E-01
RMM:   2    -0.116458539973E+04   -0.48267E-02   -0.29405E-02 12248   0.216E-01    0.482E-01
RMM:   3    -0.116458527778E+04    0.12195E-03   -0.10686E-03 11411   0.428E-02    0.410E-01
RMM:   4    -0.116458552388E+04   -0.24610E-03   -0.11494E-03 10971   0.329E-02    0.256E-01
RMM:   5    -0.116458576804E+04   -0.24416E-03   -0.10349E-03 10796   0.299E-02    0.111E-01
RMM:   6    -0.116458592311E+04   -0.15507E-03   -0.15302E-04  8345   0.125E-02    0.942E-02
RMM:   7    -0.116458615425E+04   -0.23114E-03   -0.23327E-04  8968   0.148E-02    0.703E-02
RMM:   8    -0.116458620949E+04   -0.55240E-04   -0.19689E-04  8608   0.131E-02
   6 F= -.11645862E+04 E0= -.11645854E+04  d E =0.111784E-02  mag=     3.9891
       N       E                     dE             d eps       ncg     rms          rms(c)
DAV:   1    -0.116458578365E+04    0.37060E-03   -0.11104E-01 12464   0.377E-01    0.977E-02
RMM:   2    -0.116458626621E+04   -0.48255E-03   -0.33648E-03 12091   0.741E-02    0.139E-01
RMM:   3    -0.116458625605E+04    0.10156E-04   -0.10879E-04  7669   0.150E-02    0.114E-01
RMM:   4    -0.116458629714E+04   -0.41090E-04   -0.11105E-04  7818   0.113E-02    0.682E-02
RMM:   5    -0.116458633720E+04   -0.40064E-04   -0.75137E-05  7669   0.813E-03    0.395E-02
RMM:   6    -0.116458635506E+04   -0.17853E-04   -0.23585E-05  6430   0.435E-03    0.295E-02
RMM:   7    -0.116458638188E+04   -0.26826E-04   -0.28793E-05  7209   0.567E-03    0.167E-02
RMM:   8    -0.116458639198E+04   -0.10099E-04   -0.16864E-05  6186   0.397E-03
   7 F= -.11645864E+04 E0= -.11645856E+04  d E =-.182487E-03  mag=     3.9894
