       N       E                     dE             d eps       ncg     rms          rms(c)
DAV:   1    -0.116287899390E+04   -0.11629E+04   -0.98958E-06  7920   0.700E-03    0.838E-03
RMM:   2    -0.116287900139E+04   -0.74933E-05   -0.76133E-06  5375   0.404E-03    0.109E-02
RMM:   3    -0.116287900338E+04   -0.19934E-05   -0.23567E-06  3280   0.233E-03    0.876E-03
RMM:   4    -0.116287900109E+04    0.22942E-05   -0.85017E-07  2743   0.223E-03    0.877E-03
RMM:   5    -0.116287900219E+04   -0.11011E-05   -0.26386E-07  1850   0.190E-03    0.872E-03
RMM:   6    -0.116287901344E+04   -0.11252E-04   -0.67891E-06  4102   0.352E-03    0.106E-02
RMM:   7    -0.116287901977E+04   -0.63254E-05   -0.35404E-06  2823   0.237E-03    0.109E-02
RMM:   8    -0.116287902970E+04   -0.99305E-05   -0.75525E-06  3917   0.304E-03
   1 F= -.11628790E+04 E0= -.11628790E+04  d E =-.116288E+04  mag=     5.9998
       N       E                     dE             d eps       ncg     rms          rms(c)
DAV:   1    -0.116287878947E+04    0.23030E-03   -0.39069E-01 12528   0.692E-01    0.272E-01
RMM:   2    -0.116288031660E+04   -0.15271E-02   -0.99985E-03 12423   0.129E-01    0.155E-01
RMM:   3    -0.116288044773E+04   -0.13113E-03   -0.54873E-04  9962   0.443E-02    0.794E-02
RMM:   4    -0.116288043988E+04    0.78526E-05   -0.14211E-04  7360   0.157E-02    0.384E-02
RMM:   5    -0.116288045991E+04   -0.20031E-04   -0.53869E-05  7033   0.102E-02    0.207E-02
RMM:   6    -0.116288047103E+04   -0.11121E-04   -0.18706E-05  6777   0.677E-03    0.165E-02
RMM:   7    -0.116288048083E+04   -0.97998E-05   -0.11001E-05  6297   0.451E-03    0.151E-02
RMM:   8    -0.116288049590E+04   -0.15072E-04   -0.10971E-05  6049   0.444E-03
   2 F= -.11628805E+04 E0= -.11628805E+04  d E =-.146620E-02  mag=     5.9998
       N       E                     dE             d eps       ncg     rms          rms(c)
DAV:   1    -0.116288095687E+04   -0.47604E-03   -0.10414E-01 12352   0.370E-01    0.117E-01
RMM:   2    -0.116288123059E+04   -0.27372E-03   -0.28118E-03 12267   0.680E-02    0.792E-02
RMM:   3    -0.116288123793E+04   -0.73435E-05   -0.12867E-04  7292   0.235E-02    0.475E-02
RMM:   4    -0.116288124056E+04   -0.26323E-05   -0.79460E-05  7120   0.109E-02    0.249E-02
RMM:   5    -0.116288125631E+04   -0.15743E-04   -0.28148E-05  6891   0.642E-03    0.172E-02
RMM:   6    -0.116288126647E+04   -0.10162E-04   -0.11314E-05  6275   0.493E-03    0.153E-02
RMM:   7    -0.116288127778E+04   -0.11315E-04   -0.80891E-06  5221   0.354E-03    0.143E-02
RMM:   8    -0.116288129698E+04   -0.19195E-04   -0.12067E-05  5487   0.416E-03
   3 F= -.11628813E+04 E0= -.11628813E+04  d E =-.801079E-03  mag=     5.9997
       N       E                     dE             d eps       ncg     rms          rms(c)
DAV:   1    -0.116288135824E+04   -0.80457E-04   -0.30240E-01 12544   0.631E-01    0.185E-01
RMM:   2    -0.116288226471E+04   -0.90647E-03   -0.76690E-03 12769   0.111E-01    0.110E-01
RMM:   3    -0.116288230525E+04   -0.40540E-04   -0.35110E-04  8793   0.361E-02    0.630E-02
RMM:   4    -0.116288230767E+04   -0.24202E-05   -0.10335E-04  7198   0.139E-02    0.307E-02
RMM:   5    -0.116288233228E+04   -0.24611E-04   -0.49874E-05  7002   0.919E-03    0.176E-02
RMM:   6    -0.116288234583E+04   -0.13552E-04   -0.18586E-05  6751   0.628E-03    0.158E-02
RMM:   7    -0.116288235928E+04   -0.13451E-04   -0.12281E-05  6267   0.481E-03    0.152E-02
RMM:   8    -0.116288238102E+04   -0.21739E-04   -0.14944E-05  5923   0.471E-03
   4 F= -.11628824E+04 E0= -.11628823E+04  d E =-.108404E-02  mag=     5.9997
       N       E                     dE             d eps       ncg     rms          rms(c)
DAV:   1    -0.116288249675E+04   -0.13747E-03   -0.25732E-01 12528   0.584E-01    0.156E-01
RMM:   2    -0.116288322976E+04   -0.73301E-03   -0.64721E-03 12603   0.101E-01    0.933E-02
RMM:   3    -0.116288326082E+04   -0.31062E-04   -0.30191E-04  8401   0.340E-02    0.559E-02
RMM:   4    -0.116288327316E+04   -0.12337E-04   -0.96084E-05  7165   0.127E-02    0.304E-02
RMM:   5    -0.116288330164E+04   -0.28486E-04   -0.42902E-05  6974   0.849E-03    0.200E-02
RMM:   6    -0.116288331722E+04   -0.15575E-04   -0.17925E-05  6693   0.603E-03    0.172E-02
RMM:   7    -0.116288333412E+04   -0.16896E-04   -0.12984E-05  6042   0.481E-03    0.163E-02
RMM:   8    -0.116288336087E+04   -0.26751E-04   -0.17566E-05  5863   0.491E-03
   5 F= -.11628834E+04 E0= -.11628833E+04  d E =-.979843E-03  mag=     5.9997
       N       E                     dE             d eps       ncg     rms          rms(c)
DAV:   1    -0.116288357579E+04   -0.24167E-03   -0.14248E-01 12360   0.435E-01    0.102E-01
RMM:   2    -0.116288395841E+04   -0.38262E-03   -0.35760E-03 12466   0.751E-02    0.639E-02
RMM:   3    -0.116288397354E+04   -0.15128E-04   -0.15425E-04  7380   0.256E-02    0.410E-02
RMM:   4    -0.116288399118E+04   -0.17642E-04   -0.61036E-05  7038   0.101E-02    0.263E-02
RMM:   5    -0.116288401444E+04   -0.23259E-04   -0.27604E-05  6835   0.644E-03    0.213E-02
RMM:   6    -0.116288403007E+04   -0.15627E-04   -0.13461E-05  6324   0.504E-03    0.165E-02
RMM:   7    -0.116288404584E+04   -0.15775E-04   -0.97918E-06  5274   0.399E-03    0.162E-02
RMM:   8    -0.116288406386E+04   -0.18016E-04   -0.97268E-06  5125   0.363E-03
   6 F= -.11628841E+04 E0= -.11628840E+04  d E =-.702990E-03  mag=     5.9997
