       N       E                     dE             d eps       ncg     rms          rms(c)
DAV:   1    -0.115966741561E+04   -0.11597E+04   -0.16749E-05  7856   0.963E-03    0.999E-03
RMM:   2    -0.115966742695E+04   -0.11340E-04   -0.13121E-05  6336   0.545E-03    0.125E-02
RMM:   3    -0.115966743036E+04   -0.34117E-05   -0.54405E-06  4901   0.294E-03    0.945E-03
RMM:   4    -0.115966743056E+04   -0.19981E-06   -0.24200E-06  4185   0.305E-03    0.950E-03
RMM:   5    -0.115966743222E+04   -0.16584E-05   -0.12874E-06  2765   0.209E-03    0.997E-03
RMM:   6    -0.115966743114E+04    0.10819E-05   -0.53339E-07  2337   0.211E-03    0.960E-03
RMM:   7    -0.115966743279E+04   -0.16534E-05   -0.30737E-07  1975   0.196E-03    0.989E-03
RMM:   8    -0.115966744431E+04   -0.11523E-04   -0.60179E-06  4455   0.344E-03
   1 F= -.11596674E+04 E0= -.11596674E+04  d E =-.115967E+04  mag=    10.0000
       N       E                     dE             d eps       ncg     rms          rms(c)
DAV:   1    -0.115966467350E+04    0.27593E-02   -0.45030E+00 12816   0.238E+00    0.903E-01
RMM:   2    -0.115967674498E+04   -0.12071E-01   -0.13652E-01 12298   0.484E-01    0.728E-01
RMM:   3    -0.115967685573E+04   -0.11075E-03   -0.75726E-03 12534   0.154E-01    0.418E-01
RMM:   4    -0.115967574072E+04    0.11150E-02   -0.40629E-03 12914   0.656E-02    0.205E-01
RMM:   5    -0.115967560333E+04    0.13740E-03   -0.85377E-04 10700   0.373E-02    0.789E-02
RMM:   6    -0.115967562852E+04   -0.25198E-04   -0.11276E-04  8277   0.136E-02    0.541E-02
RMM:   7    -0.115967569332E+04   -0.64793E-04   -0.79900E-05  7696   0.114E-02    0.307E-02
RMM:   8    -0.115967574706E+04   -0.53746E-04   -0.56903E-05  7301   0.882E-03
   2 F= -.11596757E+04 E0= -.11596757E+04  d E =-.830275E-02  mag=    10.0000
       N       E                     dE             d eps       ncg     rms          rms(c)
DAV:   1    -0.115968229588E+04   -0.66026E-02   -0.95324E-01 13344   0.112E+00    0.369E-01
RMM:   2    -0.115968317128E+04   -0.87540E-03   -0.33019E-02 12296   0.235E-01    0.366E-01
RMM:   3    -0.115968281811E+04    0.35317E-03   -0.17991E-03 12646   0.716E-02    0.236E-01
RMM:   4    -0.115968242561E+04    0.39250E-03   -0.13425E-03 11509   0.373E-02    0.128E-01
RMM:   5    -0.115968235649E+04    0.69119E-04   -0.36002E-04 10152   0.270E-02    0.508E-02
RMM:   6    -0.115968238071E+04   -0.24213E-04   -0.56118E-05  7297   0.965E-03    0.393E-02
RMM:   7    -0.115968241766E+04   -0.36954E-04   -0.35427E-05  7174   0.714E-03    0.292E-02
RMM:   8    -0.115968247612E+04   -0.58457E-04   -0.47442E-05  7153   0.875E-03
   3 F= -.11596825E+04 E0= -.11596825E+04  d E =-.672905E-02  mag=    10.0000
       N       E                     dE             d eps       ncg     rms          rms(c)
DAV:   1    -0.115968215326E+04    0.26440E-03   -0.12265E+00 12816   0.126E+00    0.442E-01
RMM:   2    -0.115968626618E+04   -0.41129E-02   -0.29978E-02 12689   0.224E-01    0.271E-01
RMM:   3    -0.115968658702E+04   -0.32084E-03   -0.16788E-03 12599   0.755E-02    0.147E-01
RMM:   4    -0.115968657773E+04    0.92920E-05   -0.49627E-04 10233   0.274E-02    0.682E-02
RMM:   5    -0.115968664285E+04   -0.65127E-04   -0.15483E-04  7434   0.188E-02    0.384E-02
RMM:   6    -0.115968667318E+04   -0.30328E-04   -0.52199E-05  7133   0.102E-02    0.278E-02
RMM:   7    -0.115968670543E+04   -0.32254E-04   -0.31757E-05  6939   0.826E-03    0.251E-02
RMM:   8    -0.115968676664E+04   -0.61207E-04   -0.43390E-05  6867   0.809E-03
   4 F= -.11596868E+04 E0= -.11596868E+04  d E =-.429053E-02  mag=    10.0000
       N       E                     dE             d eps       ncg     rms          rms(c)
DAV:   1    -0.115968653536E+04    0.17007E-03   -0.10450E+00 12696   0.118E+00    0.360E-01
RMM:   2    -0.115968973653E+04   -0.32012E-02   -0.26000E-02 12808   0.206E-01    0.223E-01
RMM:   3    -0.115968991274E+04   -0.17620E-03   -0.13344E-03 12394   0.671E-02    0.125E-01
RMM:   4    -0.115968991362E+04   -0.88468E-06   -0.38355E-04  9323   0.248E-02    0.584E-02
RMM:   5    -0.115968998224E+04   -0.68617E-04   -0.15155E-04  7360   0.171E-02    0.296E-02
RMM:   6    -0.115969001286E+04   -0.30623E-04   -0.50277E-05  7106   0.101E-02    0.255E-02
RMM:   7    -0.115969004743E+04   -0.34571E-04   -0.33133E-05  6888   0.800E-03    0.238E-02
RMM:   8    -0.115969012805E+04   -0.80619E-04   -0.61852E-05  6916   0.934E-03
   5 F= -.11596901E+04 E0= -.11596901E+04  d E =-.336141E-02  mag=    10.0000
       N       E                     dE             d eps       ncg     rms          rms(c)
DAV:   1    -0.115968931224E+04    0.73519E-03   -0.11328E+00 12672   0.123E+00    0.329E-01
RMM:   2    -0.115969249443E+04   -0.31822E-02   -0.27935E-02 12884   0.212E-01    0.199E-01
RMM:   3    -0.115969261632E+04   -0.12189E-03   -0.13765E-03 12366   0.680E-02    0.116E-01
RMM:   4    -0.115969261896E+04   -0.26410E-05   -0.36141E-04  8992   0.244E-02    0.553E-02
RMM:   5    -0.115969268828E+04   -0.69321E-04   -0.15551E-04  7323   0.167E-02    0.296E-02
RMM:   6    -0.115969271757E+04   -0.29287E-04   -0.51114E-05  7073   0.105E-02    0.257E-02
RMM:   7    -0.115969274733E+04   -0.29761E-04   -0.33011E-05  6879   0.798E-03    0.232E-02
RMM:   8    -0.115969281592E+04   -0.68588E-04   -0.50070E-05  6862   0.875E-03
   6 F= -.11596928E+04 E0= -.11596928E+04  d E =-.268787E-02  mag=    10.0000
       N       E                     dE             d eps       ncg     rms          rms(c)
DAV:   1    -0.115969267884E+04    0.68490E-04   -0.64607E-01 12664   0.928E-01    0.235E-01
RMM:   2    -0.115969443390E+04   -0.17551E-02   -0.15906E-02 12872   0.159E-01    0.143E-01
RMM:   3    -0.115969449288E+04   -0.58981E-04   -0.75224E-04 10788   0.507E-02    0.860E-02
RMM:   4    -0.115969451141E+04   -0.18527E-04   -0.19490E-04  7549   0.188E-02    0.442E-02
RMM:   5    -0.115969457361E+04   -0.62204E-04   -0.99301E-05  7211   0.130E-02    0.351E-02
RMM:   6    -0.115969459460E+04   -0.20987E-04   -0.34690E-05  6971   0.886E-03    0.235E-02
RMM:   7    -0.115969462625E+04   -0.31652E-04   -0.26937E-05  6780   0.694E-03    0.216E-02
RMM:   8    -0.115969466858E+04   -0.42327E-04   -0.27957E-05  6480   0.641E-03
   7 F= -.11596947E+04 E0= -.11596947E+04  d E =-.185266E-02  mag=    10.0000
       N       E                     dE             d eps       ncg     rms          rms(c)
DAV:   1    -0.115969439649E+04    0.22976E-03   -0.64580E-01 12624   0.926E-01    0.200E-01
RMM:   2    -0.115969600842E+04   -0.16119E-02   -0.15712E-02 12739   0.156E-01    0.123E-01
RMM:   3    -0.115969603921E+04   -0.30790E-04   -0.74705E-04 10658   0.516E-02    0.774E-02
RMM:   4    -0.115969605479E+04   -0.15583E-04   -0.19730E-04  7503   0.181E-02    0.403E-02
RMM:   5    -0.115969610958E+04   -0.54786E-04   -0.90845E-05  7162   0.121E-02    0.253E-02
RMM:   6    -0.115969613051E+04   -0.20936E-04   -0.32883E-05  6956   0.827E-03    0.218E-02
RMM:   7    -0.115969615728E+04   -0.26765E-04   -0.24373E-05  6719   0.633E-03    0.198E-02
RMM:   8    -0.115969620530E+04   -0.48025E-04   -0.32822E-05  6525   0.680E-03
   8 F= -.11596962E+04 E0= -.11596962E+04  d E =-.153673E-02  mag=    10.0000
