       N       E                     dE             d eps       ncg     rms          rms(c)
DAV:   1    -0.116293297838E+04   -0.11629E+04   -0.70087E-06  3792   0.575E-03    0.693E-03
RMM:   2    -0.116293298263E+04   -0.42561E-05   -0.43012E-06  2286   0.328E-03    0.865E-03
RMM:   3    -0.116293298391E+04   -0.12802E-05   -0.11661E-06  1272   0.194E-03    0.562E-03
RMM:   4    -0.116293298481E+04   -0.89900E-06   -0.71257E-07  1071   0.198E-03    0.582E-03
RMM:   5    -0.116293298301E+04    0.18071E-05   -0.28721E-07   966   0.182E-03    0.627E-03
RMM:   6    -0.116293298792E+04   -0.49184E-05   -0.18177E-06  1328   0.241E-03    0.541E-03
RMM:   7    -0.116293300214E+04   -0.14217E-04   -0.27741E-05  2532   0.614E-03    0.412E-03
RMM:   8    -0.116293301363E+04   -0.11489E-04   -0.40412E-05  2377   0.619E-03
   1 F= -.11629330E+04 E0= -.11629330E+04  d E =-.116293E+04  mag=     5.9999
       N       E                     dE             d eps       ncg     rms          rms(c)
DAV:   1    -0.116293308701E+04   -0.84870E-04   -0.20432E-01  6192   0.497E-01    0.146E-01
RMM:   2    -0.116293364743E+04   -0.56042E-03   -0.50535E-03  6176   0.883E-02    0.894E-02
RMM:   3    -0.116293366958E+04   -0.22153E-04   -0.25358E-04  3990   0.310E-02    0.509E-02
RMM:   4    -0.116293365883E+04    0.10748E-04   -0.80051E-05  3545   0.118E-02    0.258E-02
RMM:   5    -0.116293366197E+04   -0.31357E-05   -0.24205E-05  3398   0.731E-03    0.154E-02
RMM:   6    -0.116293366476E+04   -0.27921E-05   -0.10007E-05  3147   0.472E-03    0.861E-03
RMM:   7    -0.116293366695E+04   -0.21910E-05   -0.51822E-06  2569   0.349E-03    0.684E-03
RMM:   8    -0.116293366993E+04   -0.29788E-05   -0.42675E-06  2305   0.311E-03
   2 F= -.11629337E+04 E0= -.11629337E+04  d E =-.656301E-03  mag=     5.9999
       N       E                     dE             d eps       ncg     rms          rms(c)
DAV:   1    -0.116293363890E+04    0.28051E-04   -0.57154E-02  6088   0.263E-01    0.779E-02
RMM:   2    -0.116293379862E+04   -0.15972E-03   -0.14269E-03  6000   0.470E-02    0.478E-02
RMM:   3    -0.116293380560E+04   -0.69732E-05   -0.67726E-05  3520   0.168E-02    0.275E-02
RMM:   4    -0.116293380584E+04   -0.24193E-06   -0.27330E-05  3387   0.692E-03    0.167E-02
RMM:   5    -0.116293380852E+04   -0.26785E-05   -0.85241E-06  2978   0.430E-03    0.123E-02
RMM:   6    -0.116293381091E+04   -0.23904E-05   -0.47091E-06  2422   0.331E-03    0.636E-03
RMM:   7    -0.116293381284E+04   -0.19286E-05   -0.25688E-06  1838   0.256E-03    0.556E-03
RMM:   8    -0.116293381565E+04   -0.28151E-05   -0.27903E-06  1950   0.269E-03
   3 F= -.11629338E+04 E0= -.11629338E+04  d E =-.802021E-03  mag=     5.9999
       N       E                     dE             d eps       ncg     rms          rms(c)
DAV:   1    -0.116293408429E+04   -0.27145E-03   -0.43631E-02  6080   0.231E-01    0.594E-02
RMM:   2    -0.116293419789E+04   -0.11360E-03   -0.10179E-03  5643   0.396E-02    0.348E-02
RMM:   3    -0.116293420319E+04   -0.53039E-05   -0.49794E-05  3366   0.146E-02    0.204E-02
RMM:   4    -0.116293420447E+04   -0.12760E-05   -0.17714E-05  3213   0.564E-03    0.117E-02
RMM:   5    -0.116293420693E+04   -0.24581E-05   -0.61029E-06  2642   0.359E-03    0.833E-03
RMM:   6    -0.116293420857E+04   -0.16423E-05   -0.31679E-06  1955   0.281E-03    0.486E-03
RMM:   7    -0.116293421009E+04   -0.15208E-05   -0.15685E-06  1487   0.233E-03    0.406E-03
RMM:   8    -0.116293421320E+04   -0.31097E-05   -0.34637E-06  1824   0.278E-03
   4 F= -.11629342E+04 E0= -.11629342E+04  d E =-.397549E-03  mag=     5.9999
       N       E                     dE             d eps       ncg     rms          rms(c)
DAV:   1    -0.116293408806E+04    0.12203E-03   -0.39243E-01  6224   0.692E-01    0.178E-01
RMM:   2    -0.116293510303E+04   -0.10150E-02   -0.92119E-03  6302   0.118E-01    0.104E-01
RMM:   3    -0.116293513397E+04   -0.30944E-04   -0.43750E-04  4469   0.393E-02    0.598E-02
RMM:   4    -0.116293511698E+04    0.16989E-04   -0.10475E-04  3601   0.139E-02    0.280E-02
RMM:   5    -0.116293512236E+04   -0.53825E-05   -0.40129E-05  3469   0.904E-03    0.108E-02
RMM:   6    -0.116293512622E+04   -0.38570E-05   -0.14207E-05  3349   0.589E-03    0.817E-03
RMM:   7    -0.116293512958E+04   -0.33613E-05   -0.82317E-06  2964   0.416E-03    0.687E-03
RMM:   8    -0.116293513458E+04   -0.50013E-05   -0.78759E-06  2808   0.384E-03
   5 F= -.11629351E+04 E0= -.11629351E+04  d E =-.131893E-02  mag=     5.9999
       N       E                     dE             d eps       ncg     rms          rms(c)
DAV:   1    -0.116293171653E+04    0.34130E-02   -0.15700E+00  6240   0.138E+00    0.355E-01
RMM:   2    -0.116293575755E+04   -0.40410E-02   -0.36708E-02  6324   0.234E-01    0.208E-01
RMM:   3    -0.116293589502E+04   -0.13747E-03   -0.19051E-03  6194   0.793E-02    0.119E-01
RMM:   4    -0.116293582062E+04    0.74402E-04   -0.45327E-04  4915   0.257E-02    0.563E-02
RMM:   5    -0.116293582872E+04   -0.80991E-05   -0.12909E-04  3680   0.161E-02    0.201E-02
RMM:   6    -0.116293583938E+04   -0.10662E-04   -0.37571E-05  3526   0.952E-03    0.147E-02
RMM:   7    -0.116293585102E+04   -0.11641E-04   -0.24869E-05  3424   0.731E-03    0.124E-02
RMM:   8    -0.116293586510E+04   -0.14081E-04   -0.21035E-05  3399   0.616E-03
   6 F= -.11629359E+04 E0= -.11629358E+04  d E =-.204945E-02  mag=     5.9999
       N       E                     dE             d eps       ncg     rms          rms(c)
DAV:   1    -0.116293591314E+04   -0.62114E-04   -0.17498E-01  6240   0.467E-01    0.943E-02
RMM:   2    -0.116293631923E+04   -0.40610E-03   -0.42134E-03  6355   0.788E-02    0.597E-02
RMM:   3    -0.116293631526E+04    0.39750E-05   -0.17502E-04  3767   0.246E-02    0.383E-02
RMM:   4    -0.116293631603E+04   -0.77538E-06   -0.61515E-05  3498   0.993E-03    0.199E-02
RMM:   5    -0.116293632516E+04   -0.91262E-05   -0.21747E-05  3375   0.634E-03    0.998E-03
RMM:   6    -0.116293633007E+04   -0.49107E-05   -0.94264E-06  3122   0.455E-03    0.871E-03
RMM:   7    -0.116293633562E+04   -0.55496E-05   -0.70410E-06  2613   0.369E-03    0.739E-03
RMM:   8    -0.116293634672E+04   -0.11105E-04   -0.11744E-05  2764   0.426E-03
   7 F= -.11629363E+04 E0= -.11629363E+04  d E =-.481622E-03  mag=     5.9999
       N       E                     dE             d eps       ncg     rms          rms(c)
DAV:   1    -0.116293387743E+04    0.24582E-02   -0.13931E+00  6304   0.132E+00    0.266E-01
RMM:   2    -0.116293699677E+04   -0.31193E-02   -0.32837E-02  6360   0.220E-01    0.166E-01
RMM:   3    -0.116293698498E+04    0.11791E-04   -0.16376E-03  6103   0.734E-02    0.104E-01
RMM:   4    -0.116293691550E+04    0.69479E-04   -0.40684E-04  4704   0.244E-02    0.503E-02
RMM:   5    -0.116293692530E+04   -0.97985E-05   -0.99941E-05  3624   0.147E-02    0.163E-02
RMM:   6    -0.116293693396E+04   -0.86645E-05   -0.34109E-05  3480   0.882E-03    0.128E-02
RMM:   7    -0.116293694243E+04   -0.84670E-05   -0.21549E-05  3385   0.668E-03    0.981E-03
RMM:   8    -0.116293695148E+04   -0.90516E-05   -0.16562E-05  3334   0.561E-03
   8 F= -.11629370E+04 E0= -.11629369E+04  d E =-.108638E-02  mag=     5.9999
       N       E                     dE             d eps       ncg     rms          rms(c)
DAV:   1    -0.116293708630E+04   -0.14387E-03   -0.74000E-02  6432   0.306E-01    0.818E-02
RMM:   2    -0.116293728421E+04   -0.19792E-03   -0.18510E-03  6122   0.541E-02    0.515E-02
RMM:   3    -0.116293728988E+04   -0.56709E-05   -0.82249E-05  3554   0.183E-02    0.301E-02
RMM:   4    -0.116293729024E+04   -0.35735E-06   -0.34596E-05  3415   0.752E-03    0.164E-02
RMM:   5    -0.116293729411E+04   -0.38719E-05   -0.11832E-05  3117   0.484E-03    0.134E-02
RMM:   6    -0.116293729659E+04   -0.24736E-05   -0.60294E-06  2824   0.367E-03    0.627E-03
RMM:   7    -0.116293729894E+04   -0.23550E-05   -0.34748E-06  2048   0.288E-03    0.578E-03
RMM:   8    -0.116293730196E+04   -0.30133E-05   -0.32160E-06  2066   0.281E-03
   9 F= -.11629373E+04 E0= -.11629373E+04  d E =-.350476E-03  mag=     5.9999
       N       E                     dE             d eps       ncg     rms          rms(c)
DAV:   1    -0.116293709805E+04    0.20089E-03   -0.15992E-01  6128   0.450E-01    0.120E-01
RMM:   2    -0.116293751548E+04   -0.41743E-03   -0.39525E-03  6144   0.792E-02    0.754E-02
RMM:   3    -0.116293752672E+04   -0.11246E-04   -0.18190E-04  3812   0.276E-02    0.433E-02
RMM:   4    -0.116293751868E+04    0.80475E-05   -0.61759E-05  3522   0.105E-02    0.246E-02
RMM:   5    -0.116293752014E+04   -0.14635E-05   -0.19407E-05  3363   0.662E-03    0.191E-02
RMM:   6    -0.116293752205E+04   -0.19092E-05   -0.92480E-06  3176   0.449E-03    0.647E-03
RMM:   7    -0.116293752331E+04   -0.12572E-05   -0.44380E-06  2546   0.342E-03    0.644E-03
RMM:   8    -0.116293752444E+04   -0.11368E-05   -0.30297E-06  2140   0.281E-03
  10 F= -.11629375E+04 E0= -.11629375E+04  d E =-.572963E-03  mag=     5.9999
       N       E                     dE             d eps       ncg     rms          rms(c)
DAV:   1    -0.116293752105E+04    0.22600E-05   -0.10206E-01  6160   0.361E-01    0.117E-01
RMM:   2    -0.116293784136E+04   -0.32032E-03   -0.24872E-03  6169   0.634E-02    0.676E-02
RMM:   3    -0.116293786038E+04   -0.19013E-04   -0.11158E-04  3601   0.221E-02    0.341E-02
RMM:   4    -0.116293785573E+04    0.46500E-05   -0.40360E-05  3443   0.829E-03    0.184E-02
RMM:   5    -0.116293785603E+04   -0.30073E-06   -0.12698E-05  3246   0.518E-03    0.111E-02
RMM:   6    -0.116293785679E+04   -0.76470E-06   -0.56571E-06  2911   0.361E-03    0.503E-03
RMM:   7    -0.116293785717E+04   -0.37733E-06   -0.24485E-06  2012   0.277E-03    0.367E-03
RMM:   8    -0.116293785758E+04   -0.40815E-06   -0.16434E-06  1720   0.239E-03
  11 F= -.11629379E+04 E0= -.11629378E+04  d E =-.333133E-03  mag=     5.9998
       N       E                     dE             d eps       ncg     rms          rms(c)
DAV:   1    -0.116293758628E+04    0.27089E-03   -0.12791E-01  6160   0.404E-01    0.131E-01
RMM:   2    -0.116293798572E+04   -0.39944E-03   -0.30966E-03  6178   0.709E-02    0.758E-02
RMM:   3    -0.116293801102E+04   -0.25302E-04   -0.14482E-04  3714   0.247E-02    0.383E-02
RMM:   4    -0.116293800461E+04    0.64040E-05   -0.48925E-05  3503   0.927E-03    0.215E-02
RMM:   5    -0.116293800465E+04   -0.37908E-07   -0.15653E-05  3368   0.583E-03    0.150E-02
RMM:   6    -0.116293800540E+04   -0.75334E-06   -0.73712E-06  3154   0.408E-03    0.562E-03
RMM:   7    -0.116293800574E+04   -0.33597E-06   -0.32501E-06  2340   0.309E-03    0.471E-03
RMM:   8    -0.116293800595E+04   -0.20933E-06   -0.19580E-06  1935   0.250E-03
  12 F= -.11629380E+04 E0= -.11629380E+04  d E =-.481507E-03  mag=     5.9998
       N       E                     dE             d eps       ncg     rms          rms(c)
DAV:   1    -0.116293798957E+04    0.16174E-04   -0.10702E-01  6160   0.377E-01    0.101E-01
RMM:   2    -0.116293827665E+04   -0.28708E-03   -0.26416E-03  6261   0.655E-02    0.580E-02
RMM:   3    -0.116293828526E+04   -0.86169E-05   -0.11371E-04  3589   0.220E-02    0.324E-02
RMM:   4    -0.116293828043E+04    0.48348E-05   -0.39819E-05  3455   0.837E-03    0.166E-02
RMM:   5    -0.116293828057E+04   -0.14044E-06   -0.13544E-05  3345   0.527E-03    0.110E-02
RMM:   6    -0.116293828125E+04   -0.68099E-06   -0.58501E-06  2987   0.379E-03    0.424E-03
RMM:   7    -0.116293828158E+04   -0.33288E-06   -0.27496E-06  2136   0.281E-03    0.324E-03
RMM:   8    -0.116293828179E+04   -0.21190E-06   -0.15468E-06  1758   0.245E-03
  13 F= -.11629383E+04 E0= -.11629382E+04  d E =-.275843E-03  mag=     5.9998
       N       E                     dE             d eps       ncg     rms          rms(c)
DAV:   1    -0.116293813786E+04    0.14372E-03   -0.82815E-02  6192   0.332E-01    0.887E-02
RMM:   2    -0.116293835978E+04   -0.22192E-03   -0.20412E-03  6185   0.576E-02    0.509E-02
RMM:   3    -0.116293836694E+04   -0.71601E-05   -0.89348E-05  3547   0.199E-02    0.284E-02
RMM:   4    -0.116293836366E+04    0.32828E-05   -0.32630E-05  3444   0.749E-03    0.152E-02
RMM:   5    -0.116293836390E+04   -0.23599E-06   -0.10576E-05  3256   0.475E-03    0.101E-02
RMM:   6    -0.116293836449E+04   -0.59219E-06   -0.48469E-06  2801   0.341E-03    0.405E-03
RMM:   7    -0.116293836479E+04   -0.29830E-06   -0.21466E-06  1990   0.269E-03    0.281E-03
RMM:   8    -0.116293836501E+04   -0.22069E-06   -0.11638E-06  1582   0.229E-03
  14 F= -.11629384E+04 E0= -.11629383E+04  d E =-.359058E-03  mag=     5.9998
       N       E                     dE             d eps       ncg     rms          rms(c)
DAV:   1    -0.116293838775E+04   -0.22959E-04   -0.92798E-02  6208   0.355E-01    0.716E-02
RMM:   2    -0.116293859121E+04   -0.20346E-03   -0.24181E-03  6232   0.625E-02    0.519E-02
RMM:   3    -0.116293858473E+04    0.64720E-05   -0.10158E-04  3540   0.210E-02    0.332E-02
RMM:   4    -0.116293857964E+04    0.50901E-05   -0.41139E-05  3458   0.821E-03    0.181E-02
RMM:   5    -0.116293857931E+04    0.33756E-06   -0.12847E-05  3338   0.507E-03    0.472E-03
RMM:   6    -0.116293857991E+04   -0.60249E-06   -0.48092E-06  2836   0.343E-03    0.355E-03
RMM:   7    -0.116293858023E+04   -0.31773E-06   -0.22113E-06  2011   0.266E-03    0.235E-03
RMM:   8    -0.116293858050E+04   -0.26882E-06   -0.12383E-06  1610   0.236E-03
  15 F= -.11629386E+04 E0= -.11629385E+04  d E =-.215488E-03  mag=     5.9998
       N       E                     dE             d eps       ncg     rms          rms(c)
DAV:   1    -0.116293854231E+04    0.37920E-04   -0.33191E-02  6208   0.213E-01    0.429E-02
RMM:   2    -0.116293861465E+04   -0.72338E-04   -0.86022E-04  5926   0.376E-02    0.312E-02
RMM:   3    -0.116293861327E+04    0.13754E-05   -0.40375E-05  3435   0.136E-02    0.197E-02
RMM:   4    -0.116293861196E+04    0.13062E-05   -0.16916E-05  3346   0.527E-03    0.116E-02
RMM:   5    -0.116293861179E+04    0.17133E-06   -0.48053E-06  2724   0.339E-03    0.332E-03
RMM:   6    -0.116293861203E+04   -0.23369E-06   -0.16889E-06  1795   0.248E-03    0.213E-03
RMM:   7    -0.116293861215E+04   -0.12356E-06   -0.78882E-07  1380   0.224E-03    0.135E-03
RMM:   8    -0.116293861225E+04   -0.10071E-06   -0.37507E-07  1106   0.208E-03
  16 F= -.11629386E+04 E0= -.11629386E+04  d E =-.247243E-03  mag=     5.9998
       N       E                     dE             d eps       ncg     rms          rms(c)
DAV:   1    -0.116293858770E+04    0.24449E-04   -0.83830E-02  6192   0.337E-01    0.642E-02
RMM:   2    -0.116293877086E+04   -0.18316E-03   -0.21197E-03  6188   0.580E-02    0.416E-02
RMM:   3    -0.116293876569E+04    0.51696E-05   -0.89148E-05  3512   0.203E-02    0.267E-02
RMM:   4    -0.116293876188E+04    0.38105E-05   -0.35797E-05  3432   0.753E-03    0.133E-02
RMM:   5    -0.116293876243E+04   -0.55040E-06   -0.95303E-06  3255   0.456E-03    0.411E-03
RMM:   6    -0.116293876288E+04   -0.44779E-06   -0.39095E-06  2692   0.309E-03    0.297E-03
RMM:   7    -0.116293876307E+04   -0.19680E-06   -0.16652E-06  1826   0.254E-03    0.185E-03
RMM:   8    -0.116293876319E+04   -0.11768E-06   -0.78119E-07  1372   0.217E-03
  17 F= -.11629388E+04 E0= -.11629387E+04  d E =-.150939E-03  mag=     5.9998
