       N       E                     dE             d eps       ncg     rms          rms(c)
DAV:   1    -0.115958227296E+04   -0.11596E+04   -0.47789E-06  7744   0.528E-03    0.852E-03
RMM:   2    -0.115958227703E+04   -0.40757E-05   -0.61149E-06  5035   0.358E-03    0.141E-02
RMM:   3    -0.115958227818E+04   -0.11483E-05   -0.19128E-06  2522   0.196E-03    0.678E-03
RMM:   4    -0.115958227725E+04    0.93144E-06   -0.33738E-07  1971   0.188E-03    0.715E-03
RMM:   5    -0.115958227762E+04   -0.36802E-06   -0.79489E-08  1403   0.173E-03    0.714E-03
RMM:   6    -0.115958228268E+04   -0.50677E-05   -0.26676E-06  3077   0.256E-03    0.100E-02
RMM:   7    -0.115958229118E+04   -0.84937E-05   -0.88356E-06  3835   0.322E-03    0.105E-02
RMM:   8    -0.115958229109E+04    0.88592E-07   -0.79321E-07  2141   0.209E-03
   1 F= -.11595823E+04 E0= -.11595823E+04  d E =-.115958E+04  mag=    10.0000
       N       E                     dE             d eps       ncg     rms          rms(c)
DAV:   1    -0.115958211103E+04    0.18015E-03   -0.81433E-01 12704   0.104E+00    0.348E-01
RMM:   2    -0.115958373447E+04   -0.16234E-02   -0.27084E-02 12288   0.216E-01    0.384E-01
RMM:   3    -0.115958355888E+04    0.17560E-03   -0.15100E-03 12518   0.684E-02    0.265E-01
RMM:   4    -0.115958334909E+04    0.20979E-03   -0.70499E-04 10816   0.313E-02    0.125E-01
RMM:   5    -0.115958330828E+04    0.40809E-04   -0.26404E-04  9136   0.225E-02    0.493E-02
RMM:   6    -0.115958330218E+04    0.61017E-05   -0.31139E-05  7224   0.998E-03    0.231E-02
RMM:   7    -0.115958330425E+04   -0.20693E-05   -0.15572E-05  6751   0.485E-03    0.174E-02
RMM:   8    -0.115958330903E+04   -0.47869E-05   -0.11124E-05  6741   0.504E-03
   2 F= -.11595833E+04 E0= -.11595833E+04  d E =-.101794E-02  mag=    10.0000
       N       E                     dE             d eps       ncg     rms          rms(c)
DAV:   1    -0.115958457031E+04   -0.12661E-02   -0.18603E-01 12352   0.488E-01    0.196E-01
RMM:   2    -0.115958487822E+04   -0.30791E-03   -0.68265E-03 12196   0.107E-01    0.210E-01
RMM:   3    -0.115958480211E+04    0.76113E-04   -0.31623E-04  9216   0.326E-02    0.143E-01
RMM:   4    -0.115958473089E+04    0.71220E-04   -0.25567E-04  8700   0.187E-02    0.568E-02
RMM:   5    -0.115958472717E+04    0.37220E-05   -0.72339E-05  7371   0.118E-02    0.288E-02
RMM:   6    -0.115958472793E+04   -0.76462E-06   -0.15026E-05  6673   0.636E-03    0.176E-02
RMM:   7    -0.115958473014E+04   -0.22040E-05   -0.69604E-06  5441   0.353E-03    0.126E-02
RMM:   8    -0.115958473464E+04   -0.45060E-05   -0.64435E-06  5535   0.339E-03
   3 F= -.11595847E+04 E0= -.11595847E+04  d E =-.142561E-02  mag=    10.0000
       N       E                     dE             d eps       ncg     rms          rms(c)
DAV:   1    -0.115958509587E+04   -0.36573E-03   -0.16853E-01 12608   0.480E-01    0.998E-02
RMM:   2    -0.115958548670E+04   -0.39083E-03   -0.44670E-03 12680   0.850E-02    0.835E-02
RMM:   3    -0.115958547617E+04    0.10537E-04   -0.18684E-04  7646   0.277E-02    0.550E-02
RMM:   4    -0.115958546917E+04    0.70004E-05   -0.61107E-05  6996   0.107E-02    0.320E-02
RMM:   5    -0.115958547295E+04   -0.37807E-05   -0.27018E-05  6786   0.715E-03    0.114E-02
RMM:   6    -0.115958547614E+04   -0.31936E-05   -0.10278E-05  6363   0.484E-03    0.915E-03
RMM:   7    -0.115958547833E+04   -0.21939E-05   -0.47132E-06  5126   0.323E-03    0.770E-03
RMM:   8    -0.115958548225E+04   -0.39180E-05   -0.43376E-06  4655   0.317E-03
   4 F= -.11595855E+04 E0= -.11595855E+04  d E =-.747607E-03  mag=    10.0000
       N       E                     dE             d eps       ncg     rms          rms(c)
DAV:   1    -0.115958576275E+04   -0.28442E-03   -0.75150E-02 12288   0.319E-01    0.655E-02
RMM:   2    -0.115958593368E+04   -0.17093E-03   -0.19502E-03 12361   0.559E-02    0.517E-02
RMM:   3    -0.115958593061E+04    0.30706E-05   -0.77702E-05  6928   0.186E-02    0.338E-02
RMM:   4    -0.115958592982E+04    0.78652E-06   -0.32598E-05  6816   0.726E-03    0.194E-02
RMM:   5    -0.115958593367E+04   -0.38517E-05   -0.13292E-05  6331   0.492E-03    0.128E-02
RMM:   6    -0.115958593589E+04   -0.22211E-05   -0.49079E-06  5516   0.351E-03    0.830E-03
RMM:   7    -0.115958593820E+04   -0.23038E-05   -0.26609E-06  4140   0.273E-03    0.700E-03
RMM:   8    -0.115958594146E+04   -0.32593E-05   -0.31223E-06  3841   0.265E-03
   5 F= -.11595859E+04 E0= -.11595859E+04  d E =-.459206E-03  mag=    10.0000
       N       E                     dE             d eps       ncg     rms          rms(c)
DAV:   1    -0.115958611222E+04   -0.17402E-03   -0.24152E-01 12576   0.570E-01    0.105E-01
RMM:   2    -0.115958667841E+04   -0.56619E-03   -0.60053E-03 12863   0.965E-02    0.681E-02
RMM:   3    -0.115958667060E+04    0.78107E-05   -0.25121E-04  8060   0.311E-02    0.441E-02
RMM:   4    -0.115958666319E+04    0.74057E-05   -0.71539E-05  7055   0.116E-02    0.225E-02
RMM:   5    -0.115958666953E+04   -0.63341E-05   -0.25127E-05  6852   0.739E-03    0.978E-03
RMM:   6    -0.115958667288E+04   -0.33528E-05   -0.10733E-05  6421   0.499E-03    0.820E-03
RMM:   7    -0.115958667573E+04   -0.28539E-05   -0.64902E-06  5488   0.375E-03    0.735E-03
RMM:   8    -0.115958668025E+04   -0.45170E-05   -0.60836E-06  5156   0.348E-03
   6 F= -.11595867E+04 E0= -.11595867E+04  d E =-.738793E-03  mag=    10.0000
