       N       E                     dE             d eps       ncg     rms          rms(c)
DAV:   1    -0.115981786483E+04   -0.11598E+04   -0.83878E-06  7224   0.512E-03    0.666E-03
RMM:   2    -0.115981786520E+04   -0.36662E-06   -0.35591E-06  5063   0.352E-03    0.105E-02
RMM:   3    -0.115981786535E+04   -0.14849E-06   -0.14398E-06  3081   0.218E-03    0.169E-03
RMM:   4    -0.115981786544E+04   -0.95737E-07   -0.61215E-07  2382   0.222E-03    0.141E-03
RMM:   5    -0.115981786551E+04   -0.70329E-07   -0.22697E-07  1743   0.190E-03    0.165E-03
RMM:   6    -0.115981786566E+04   -0.14757E-06   -0.29745E-07  1631   0.196E-03    0.137E-03
RMM:   7    -0.115981786572E+04   -0.59081E-07   -0.15836E-07  1465   0.192E-03    0.102E-03
RMM:   8    -0.115981786578E+04   -0.64145E-07   -0.12442E-07  1247   0.190E-03
   1 F= -.11598179E+04 E0= -.11598179E+04  d E =-.115982E+04  mag=    10.0000
       N       E                     dE             d eps       ncg     rms          rms(c)
DAV:   1    -0.115981795925E+04   -0.93526E-04   -0.11662E-01 12344   0.396E-01    0.109E-01
RMM:   2    -0.115981816983E+04   -0.21058E-03   -0.35982E-03 12182   0.764E-02    0.121E-01
RMM:   3    -0.115981813895E+04    0.30872E-04   -0.11949E-04  7368   0.215E-02    0.900E-02
RMM:   4    -0.115981811091E+04    0.28047E-04   -0.97296E-05  7234   0.121E-02    0.468E-02
RMM:   5    -0.115981810288E+04    0.80289E-05   -0.30257E-05  6843   0.821E-03    0.299E-02
RMM:   6    -0.115981810329E+04   -0.40742E-06   -0.89778E-06  6002   0.461E-03    0.106E-02
RMM:   7    -0.115981810335E+04   -0.60987E-07   -0.34630E-06  4908   0.321E-03    0.909E-03
RMM:   8    -0.115981810346E+04   -0.11400E-06   -0.20602E-06  4344   0.251E-03
   2 F= -.11598181E+04 E0= -.11598181E+04  d E =-.237677E-03  mag=    10.0000
       N       E                     dE             d eps       ncg     rms          rms(c)
DAV:   1    -0.115981828995E+04   -0.18660E-03   -0.26292E-02 12208   0.185E-01    0.580E-02
RMM:   2    -0.115981832790E+04   -0.37947E-04   -0.92053E-04 11342   0.382E-02    0.662E-02
RMM:   3    -0.115981831732E+04    0.10571E-04   -0.33118E-05  6353   0.109E-02    0.495E-02
RMM:   4    -0.115981830781E+04    0.95176E-05   -0.32115E-05  6201   0.681E-03    0.265E-02
RMM:   5    -0.115981830453E+04    0.32751E-05   -0.10028E-05  5602   0.478E-03    0.157E-02
RMM:   6    -0.115981830453E+04    0.40163E-08   -0.25798E-06  4220   0.280E-03    0.673E-03
RMM:   7    -0.115981830450E+04    0.27707E-07   -0.61325E-07  2426   0.216E-03    0.383E-03
RMM:   8    -0.115981830450E+04   -0.21682E-08   -0.24106E-07  1949   0.196E-03
   3 F= -.11598183E+04 E0= -.11598183E+04  d E =-.201042E-03  mag=    10.0000
