       N       E                     dE             d eps       ncg     rms          rms(c)
DAV:   1     0.120093202251E+05    0.12009E+05   -0.42370E+05 12352   0.132E+03
DAV:   2     0.682899241747E+03   -0.11326E+05   -0.10111E+05 12328   0.377E+02
DAV:   3    -0.135230616202E+04   -0.20352E+04   -0.19603E+04 13216   0.167E+02
DAV:   4    -0.148994065961E+04   -0.13763E+03   -0.13532E+03 16104   0.457E+01
DAV:   5    -0.149906113949E+04   -0.91205E+01   -0.90752E+01 22376   0.108E+01    0.183E+02
RMM:   6    -0.116091762820E+04    0.33814E+03   -0.16201E+03 12536   0.355E+01    0.123E+02
RMM:   7    -0.114552897615E+04    0.15389E+02   -0.68365E+01 12814   0.116E+01    0.772E+01
RMM:   8    -0.114911996762E+04   -0.35910E+01   -0.33845E+01 13011   0.656E+00    0.515E+01
RMM:   9    -0.115196591056E+04   -0.28459E+01   -0.18567E+01 13825   0.451E+00    0.322E+01
RMM:  10    -0.115270327492E+04   -0.73736E+00   -0.62574E+00 13114   0.276E+00    0.124E+01
RMM:  11    -0.115335565297E+04   -0.65238E+00   -0.28987E+00 14300   0.183E+00    0.173E+01
RMM:  12    -0.115478116742E+04   -0.14255E+01   -0.99082E-01 14500   0.104E+00    0.122E+01
RMM:  13    -0.115464148995E+04    0.13968E+00   -0.17135E+00 13172   0.129E+00    0.658E+00
RMM:  14    -0.115485909322E+04   -0.21760E+00   -0.51187E-01 14364   0.601E-01    0.407E+00
RMM:  15    -0.115531752495E+04   -0.45843E+00   -0.15890E-01 14023   0.406E-01    0.406E+00
RMM:  16    -0.115563317155E+04   -0.31565E+00   -0.14684E-01 13191   0.405E-01    0.334E+00
RMM:  17    -0.115591138339E+04   -0.27821E+00   -0.28413E-01 12486   0.637E-01    0.192E+00
RMM:  18    -0.115595142201E+04   -0.40039E-01   -0.10754E-01 14076   0.358E-01    0.142E+00
RMM:  19    -0.115594968501E+04    0.17370E-02   -0.33826E-02 14272   0.193E-01    0.102E+00
RMM:  20    -0.115595537400E+04   -0.56890E-02   -0.26166E-02 13799   0.159E-01    0.644E-01
RMM:  21    -0.115595964161E+04   -0.42676E-02   -0.22250E-02 13217   0.157E-01    0.315E-01
RMM:  22    -0.115596376350E+04   -0.41219E-02   -0.11712E-02 13374   0.993E-02    0.212E-01
RMM:  23    -0.115596710250E+04   -0.33390E-02   -0.49788E-03 11974   0.669E-02    0.170E-01
RMM:  24    -0.115597215828E+04   -0.50558E-02   -0.63910E-03 11532   0.805E-02    0.145E-01
RMM:  25    -0.115597533543E+04   -0.31772E-02   -0.40791E-03 11046   0.600E-02    0.141E-01
RMM:  26    -0.115597739438E+04   -0.20589E-02   -0.21751E-03 10371   0.403E-02    0.133E-01
RMM:  27    -0.115598416599E+04   -0.67716E-02   -0.14615E-02 10959   0.115E-01    0.119E-01
RMM:  28    -0.115598715199E+04   -0.29860E-02   -0.72654E-03 11046   0.709E-02    0.109E-01
RMM:  29    -0.115599060236E+04   -0.34504E-02   -0.69288E-03 10822   0.742E-02    0.972E-02
RMM:  30    -0.115599493536E+04   -0.43330E-02   -0.12653E-02 10991   0.106E-01    0.794E-02
RMM:  31    -0.115599901603E+04   -0.40807E-02   -0.18827E-02 11252   0.127E-01    0.643E-02
RMM:  32    -0.115600133587E+04   -0.23198E-02   -0.11497E-02 11318   0.872E-02    0.598E-02
RMM:  33    -0.115600248867E+04   -0.11528E-02   -0.14319E-02 11119   0.112E-01    0.891E-02
RMM:  34    -0.115600301025E+04   -0.52159E-03   -0.14859E-03  9636   0.422E-02    0.588E-02
RMM:  35    -0.115600421503E+04   -0.12048E-02   -0.63164E-03 10420   0.739E-02    0.322E-02
RMM:  36    -0.115600465842E+04   -0.44340E-03   -0.34275E-03  9925   0.445E-02    0.269E-02
RMM:  37    -0.115600477422E+04   -0.11580E-03   -0.11236E-03  8982   0.251E-02    0.334E-02
RMM:  38    -0.115600488310E+04   -0.10888E-03   -0.92176E-04  8649   0.255E-02    0.349E-02
RMM:  39    -0.115600502208E+04   -0.13898E-03   -0.67310E-04  8411   0.209E-02    0.227E-02
RMM:  40    -0.115600470657E+04    0.31551E-03   -0.25987E-04  8008   0.216E-02
   1 F= -.11560047E+04 E0= -.11560047E+04  d E =-.115600E+04  mag=    10.0008
       N       E                     dE             d eps       ncg     rms          rms(c)
DAV:   1    -0.112080680157E+04    0.35198E+02   -0.27074E+03 12696   0.470E+01    0.460E+01
RMM:   2    -0.113782344651E+04   -0.17017E+02   -0.19807E+02 12529   0.115E+01    0.256E+01
RMM:   3    -0.113850194471E+04   -0.67850E+00   -0.16070E+01 13064   0.421E+00    0.202E+01
RMM:   4    -0.113937532480E+04   -0.87338E+00   -0.91516E+00 14838   0.203E+00    0.142E+01
RMM:   5    -0.113821794211E+04    0.11574E+01   -0.30720E+00 14108   0.118E+00    0.670E+00
RMM:   6    -0.113796803311E+04    0.24991E+00   -0.48654E-01 14571   0.549E-01    0.422E+00
RMM:   7    -0.113810429201E+04   -0.13626E+00   -0.21565E-01 14803   0.337E-01    0.373E+00
RMM:   8    -0.113822681752E+04   -0.12253E+00   -0.14580E-01 13655   0.288E-01    0.272E+00
RMM:   9    -0.113824650568E+04   -0.19688E-01   -0.18920E-01 13163   0.316E-01    0.121E+00
RMM:  10    -0.113825635657E+04   -0.98509E-02   -0.60147E-02 14358   0.189E-01    0.751E-01
RMM:  11    -0.113826017883E+04   -0.38223E-02   -0.13964E-02 13073   0.100E-01    0.431E-01
RMM:  12    -0.113826123986E+04   -0.10610E-02   -0.52960E-03 13000   0.604E-02    0.254E-01
RMM:  13    -0.113826244431E+04   -0.12044E-02   -0.29746E-03 12062   0.420E-02    0.159E-01
RMM:  14    -0.113826332175E+04   -0.87745E-03   -0.14349E-03 10906   0.299E-02    0.115E-01
RMM:  15    -0.113826415529E+04   -0.83353E-03   -0.10159E-03  9872   0.239E-02    0.104E-01
RMM:  16    -0.113826487253E+04   -0.71724E-03   -0.75116E-04  9278   0.197E-02    0.106E-01
RMM:  17    -0.113826492737E+04   -0.54842E-04   -0.21992E-04  8435   0.109E-02
   2 F= -.11382649E+04 E0= -.11382649E+04  d E =0.177398E+02  mag=    10.0068
       N       E                     dE             d eps       ncg     rms          rms(c)
DAV:   1    -0.112744101900E+04    0.10824E+02   -0.16330E+03 12288   0.192E+01    0.423E+01
RMM:   2    -0.115775022675E+04   -0.30309E+02   -0.35750E+02 14160   0.116E+01    0.506E+01
RMM:   3    -0.115620308421E+04    0.15471E+01   -0.31062E+01 13032   0.403E+00    0.388E+01
RMM:   4    -0.114823390921E+04    0.79692E+01   -0.40132E+00 13021   0.146E+00    0.267E+01
RMM:   5    -0.116089013325E+04   -0.12656E+02   -0.45486E+01 12316   0.545E+00    0.472E+01
RMM:   6    -0.114844092408E+04    0.12449E+02   -0.30014E+00 13261   0.174E+00    0.202E+01
RMM:   7    -0.114707966862E+04    0.13613E+01   -0.61960E-01 13116   0.760E-01    0.151E+01
RMM:   8    -0.114700440349E+04    0.75265E-01   -0.42032E-01 13423   0.557E-01    0.131E+01
RMM:   9    -0.114677935331E+04    0.22505E+00   -0.15620E-01 13490   0.406E-01    0.121E+01
RMM:  10    -0.114649741922E+04    0.28193E+00   -0.70418E-01 12254   0.825E-01    0.105E+01
RMM:  11    -0.114303251971E+04    0.34649E+01   -0.15405E+00 12264   0.129E+00    0.727E+00
RMM:  12    -0.114305491110E+04   -0.22391E-01   -0.60151E-01 13513   0.636E-01    0.662E+00
RMM:  13    -0.114441426624E+04   -0.13594E+01   -0.16954E-01 12477   0.402E-01    0.592E+00
RMM:  14    -0.114560585063E+04   -0.11916E+01   -0.20145E-01 12206   0.446E-01    0.480E+00
RMM:  15    -0.114562551019E+04   -0.19660E-01   -0.15090E-02 13911   0.164E-01    0.494E+00
RMM:  16    -0.114562147071E+04    0.40395E-02   -0.15184E-02 13253   0.118E-01    0.417E+00
RMM:  17    -0.114572256675E+04   -0.10110E+00   -0.22222E-02 12186   0.164E-01    0.423E+00
RMM:  18    -0.114565837631E+04    0.64190E-01   -0.13335E-02 11916   0.119E-01    0.450E+00
RMM:  19    -0.114562296634E+04    0.35410E-01   -0.34776E-03 11620   0.604E-02    0.456E+00
RMM:  20    -0.114560766260E+04    0.15304E-01   -0.27187E-03 11340   0.568E-02    0.482E+00
RMM:  21    -0.114560009886E+04    0.75637E-02   -0.13710E-03 10651   0.433E-02    0.496E+00
RMM:  22    -0.114563651951E+04   -0.36421E-01   -0.10942E-02 11925   0.114E-01    0.519E+00
RMM:  23    -0.114563480467E+04    0.17148E-02   -0.78832E-04 10484   0.271E-02    0.518E+00
RMM:  24    -0.114563367619E+04    0.11285E-02   -0.72571E-05  7886   0.997E-03    0.515E+00
RMM:  25    -0.114568299577E+04   -0.49320E-01   -0.22908E-03 11237   0.531E-02    0.475E+00
RMM:  26    -0.114588729674E+04   -0.20430E+00   -0.59550E-02 12175   0.262E-01    0.425E+00
RMM:  27    -0.114592614609E+04   -0.38849E-01   -0.17058E-02 12664   0.144E-01    0.399E+00
RMM:  28    -0.114591987171E+04    0.62744E-02   -0.11555E-02 12314   0.123E-01    0.428E+00
RMM:  29    -0.114600896144E+04   -0.89090E-01   -0.29067E-02 12350   0.193E-01    0.401E+00
RMM:  30    -0.114631212746E+04   -0.30317E+00   -0.32958E-01 12334   0.662E-01    0.224E+00
RMM:  31    -0.114646821272E+04   -0.15609E+00   -0.17082E-01 12267   0.400E-01    0.217E+00
RMM:  32    -0.114646370561E+04    0.45071E-02   -0.28127E-02 12618   0.186E-01    0.194E+00
RMM:  33    -0.114642241929E+04    0.41286E-01   -0.40262E-02 12301   0.226E-01    0.235E+00
RMM:  34    -0.114641475684E+04    0.76624E-02   -0.64384E-03 12801   0.715E-02    0.241E+00
RMM:  35    -0.114642036660E+04   -0.56098E-02   -0.57570E-04 10517   0.236E-02    0.236E+00
RMM:  36    -0.114646011892E+04   -0.39752E-01   -0.21463E-02 12067   0.168E-01    0.198E+00
RMM:  37    -0.114653947080E+04   -0.79352E-01   -0.10018E-01 12520   0.351E-01    0.143E+00
RMM:  38    -0.114659079689E+04   -0.51326E-01   -0.10005E-01 12876   0.339E-01    0.127E+00
RMM:  39    -0.114659862730E+04   -0.78304E-02   -0.17152E-02 13579   0.104E-01    0.129E+00
RMM:  40    -0.114660532874E+04   -0.67014E-02   -0.33725E-03 12287   0.513E-02
   3 F= -.11466053E+04 E0= -.11466053E+04  d E =-.834040E+01  mag=    10.0870
       N       E                     dE             d eps       ncg     rms          rms(c)
DAV:   1    -0.113659601188E+04    0.10003E+02   -0.14587E+03 12416   0.315E+01    0.204E+01
RMM:   2    -0.115448761568E+04   -0.17892E+02   -0.22705E+02 14019   0.107E+01    0.163E+01
RMM:   3    -0.114963709348E+04    0.48505E+01   -0.10601E+01 12771   0.358E+00    0.125E+01
RMM:   4    -0.114802832394E+04    0.16088E+01   -0.40857E+00 14435   0.155E+00    0.821E+00
RMM:   5    -0.114865404642E+04   -0.62572E+00   -0.43553E+00 12918   0.934E-01    0.110E+01
RMM:   6    -0.114771146827E+04    0.94258E+00   -0.12806E+00 13854   0.719E-01    0.321E+00
RMM:   7    -0.114775536361E+04   -0.43895E-01   -0.77769E-01 13591   0.609E-01    0.196E+00
RMM:   8    -0.114774141267E+04    0.13951E-01   -0.54982E-02 13985   0.254E-01    0.166E+00
RMM:   9    -0.114772000445E+04    0.21408E-01   -0.14971E-02 16717   0.844E-02    0.115E+00
RMM:  10    -0.114770509573E+04    0.14909E-01   -0.45223E-02 13398   0.111E-01    0.419E-01
RMM:  11    -0.114770637052E+04   -0.12748E-02   -0.66601E-03 13556   0.741E-02    0.217E-01
RMM:  12    -0.114770709188E+04   -0.72137E-03   -0.24909E-03 12974   0.369E-02    0.163E-01
RMM:  13    -0.114770757904E+04   -0.48715E-03   -0.85309E-04 10853   0.277E-02    0.137E-01
RMM:  14    -0.114770769879E+04   -0.11975E-03   -0.74668E-04  9997   0.220E-02    0.581E-02
RMM:  15    -0.114770793905E+04   -0.24026E-03   -0.67672E-04  9443   0.192E-02    0.572E-02
RMM:  16    -0.114770799543E+04   -0.56379E-04   -0.12164E-04  8077   0.131E-02
   4 F= -.11477080E+04 E0= -.11477080E+04  d E =-.110267E+01  mag=     9.9999
       N       E                     dE             d eps       ncg     rms          rms(c)
DAV:   1    -0.114987923752E+04   -0.21713E+01   -0.72633E+02 12496   0.161E+01    0.179E+01
RMM:   2    -0.115318471531E+04   -0.33055E+01   -0.55386E+01 12297   0.544E+00    0.186E+01
RMM:   3    -0.115284978328E+04    0.33493E+00   -0.24929E+00 13450   0.123E+00    0.154E+01
RMM:   4    -0.115354222790E+04   -0.69244E+00   -0.48799E+00 12641   0.161E+00    0.102E+01
RMM:   5    -0.115271328641E+04    0.82894E+00   -0.84392E-01 12874   0.965E-01    0.451E+00
RMM:   6    -0.115252528448E+04    0.18800E+00   -0.61113E-01 13637   0.654E-01    0.232E+00
RMM:   7    -0.115248703181E+04    0.38253E-01   -0.11804E-01 14139   0.307E-01    0.977E-01
RMM:   8    -0.115248244096E+04    0.45909E-02   -0.23549E-02 15005   0.124E-01    0.495E-01
RMM:   9    -0.115248166204E+04    0.77892E-03   -0.40731E-03 13246   0.548E-02    0.170E-01
RMM:  10    -0.115248162760E+04    0.34435E-04   -0.11822E-03 12611   0.303E-02    0.502E-02
RMM:  11    -0.115248165271E+04   -0.25103E-04   -0.28203E-04  9172   0.173E-02
   5 F= -.11524817E+04 E0= -.11524817E+04  d E =-.477366E+01  mag=    10.0000
       N       E                     dE             d eps       ncg     rms          rms(c)
DAV:   1    -0.115312754557E+04   -0.64592E+00   -0.51780E+02 12480   0.237E+01    0.879E+00
RMM:   2    -0.115473550721E+04   -0.16080E+01   -0.22891E+01 12297   0.535E+00    0.919E+00
RMM:   3    -0.115466641172E+04    0.69095E-01   -0.10334E+00 13342   0.137E+00    0.675E+00
RMM:   4    -0.115458950476E+04    0.76907E-01   -0.43001E-01 13214   0.633E-01    0.390E+00
RMM:   5    -0.115455250885E+04    0.36996E-01   -0.21210E-01 13145   0.445E-01    0.102E+00
RMM:   6    -0.115455514293E+04   -0.26341E-02   -0.28452E-02 15863   0.159E-01    0.627E-01
RMM:   7    -0.115455768173E+04   -0.25388E-02   -0.81998E-03 16455   0.712E-02    0.410E-01
RMM:   8    -0.115456485698E+04   -0.71752E-02   -0.71974E-03 14361   0.732E-02    0.347E-01
RMM:   9    -0.115456814366E+04   -0.32867E-02   -0.38958E-03 13334   0.504E-02    0.226E-01
RMM:  10    -0.115457182354E+04   -0.36799E-02   -0.23829E-03 12252   0.413E-02    0.211E-01
RMM:  11    -0.115457553609E+04   -0.37126E-02   -0.38172E-03 12269   0.502E-02    0.155E-01
RMM:  12    -0.115457909603E+04   -0.35599E-02   -0.65426E-03 12593   0.675E-02    0.103E-01
RMM:  13    -0.115458056851E+04   -0.14725E-02   -0.30590E-03 11584   0.467E-02    0.835E-02
RMM:  14    -0.115458137631E+04   -0.80780E-03   -0.15328E-03 10613   0.320E-02    0.702E-02
RMM:  15    -0.115458190063E+04   -0.52432E-03   -0.10765E-03 10130   0.276E-02    0.490E-02
RMM:  16    -0.115458242381E+04   -0.52318E-03   -0.18747E-03 10879   0.361E-02    0.292E-02
RMM:  17    -0.115458261572E+04   -0.19191E-03   -0.67792E-04  9397   0.238E-02    0.180E-02
RMM:  18    -0.115458268629E+04   -0.70573E-04   -0.31336E-04  8259   0.162E-02
   6 F= -.11545827E+04 E0= -.11545827E+04  d E =-.210103E+01  mag=    10.0000
       N       E                     dE             d eps       ncg     rms          rms(c)
DAV:   1    -0.115584049748E+04   -0.12579E+01   -0.13180E+02 12576   0.107E+01    0.542E+00
RMM:   2    -0.115618149865E+04   -0.34100E+00   -0.39318E+00 12292   0.221E+00    0.359E+00
RMM:   3    -0.115617874785E+04    0.27508E-02   -0.25967E-01 12641   0.766E-01    0.215E+00
RMM:   4    -0.115614055689E+04    0.38191E-01   -0.12466E-01 13275   0.348E-01    0.137E+00
RMM:   5    -0.115613289526E+04    0.76616E-02   -0.30187E-02 13044   0.199E-01    0.518E-01
RMM:   6    -0.115613327143E+04   -0.37617E-03   -0.72524E-03 15728   0.687E-02    0.370E-01
RMM:   7    -0.115613285058E+04    0.42085E-03   -0.28596E-03 13905   0.391E-02    0.220E-01
RMM:   8    -0.115613279802E+04    0.52561E-04   -0.85816E-04 11498   0.287E-02
   7 F= -.11561328E+04 E0= -.11561328E+04  d E =-.155011E+01  mag=    10.0000
       N       E                     dE             d eps       ncg     rms          rms(c)
DAV:   1    -0.115691941581E+04   -0.78657E+00   -0.20364E+02 12504   0.121E+01    0.500E+00
RMM:   2    -0.115750947232E+04   -0.59006E+00   -0.62692E+00 12333   0.255E+00    0.368E+00
RMM:   3    -0.115752564427E+04   -0.16172E-01   -0.37752E-01 12922   0.834E-01    0.217E+00
RMM:   4    -0.115750623104E+04    0.19413E-01   -0.12806E-01 13907   0.303E-01    0.131E+00
RMM:   5    -0.115750124249E+04    0.49885E-02   -0.29062E-02 13955   0.143E-01    0.603E-01
RMM:   6    -0.115750137544E+04   -0.13294E-03   -0.53131E-03 14496   0.681E-02    0.333E-01
RMM:   7    -0.115750167574E+04   -0.30030E-03   -0.14068E-03 13481   0.309E-02    0.164E-01
RMM:   8    -0.115750185455E+04   -0.17881E-03   -0.59571E-04 10717   0.224E-02    0.462E-02
RMM:   9    -0.115750192100E+04   -0.66450E-04   -0.21790E-04  8748   0.148E-02
   8 F= -.11575019E+04 E0= -.11575019E+04  d E =-.136912E+01  mag=    10.0000
       N       E                     dE             d eps       ncg     rms          rms(c)
DAV:   1    -0.115809052170E+04   -0.58867E+00   -0.15773E+02 12560   0.113E+01    0.461E+00
RMM:   2    -0.115855354829E+04   -0.46303E+00   -0.50286E+00 12317   0.240E+00    0.331E+00
RMM:   3    -0.115855925630E+04   -0.57080E-02   -0.31544E-01 12953   0.810E-01    0.202E+00
RMM:   4    -0.115854570959E+04    0.13547E-01   -0.10543E-01 13128   0.314E-01    0.953E-01
RMM:   5    -0.115854391023E+04    0.17994E-02   -0.20430E-02 13969   0.158E-01    0.546E-01
RMM:   6    -0.115854444288E+04   -0.53265E-03   -0.42525E-03 15269   0.549E-02    0.309E-01
RMM:   7    -0.115854488165E+04   -0.43877E-03   -0.10831E-03 13039   0.302E-02    0.142E-01
RMM:   8    -0.115854521153E+04   -0.32989E-03   -0.59531E-04 11404   0.238E-02    0.608E-02
RMM:   9    -0.115854530214E+04   -0.90604E-04   -0.23115E-04  9519   0.156E-02
   9 F= -.11585453E+04 E0= -.11585453E+04  d E =-.104338E+01  mag=    10.0000
       N       E                     dE             d eps       ncg     rms          rms(c)
DAV:   1    -0.115853063412E+04    0.14577E-01   -0.10814E+02 12744   0.106E+01    0.481E+00
RMM:   2    -0.115890894914E+04   -0.37832E+00   -0.37942E+00 12293   0.221E+00    0.404E+00
RMM:   3    -0.115890856329E+04    0.38585E-03   -0.22045E-01 13592   0.666E-01    0.271E+00
RMM:   4    -0.115889270941E+04    0.15854E-01   -0.11808E-01 13234   0.349E-01    0.895E-01
RMM:   5    -0.115889097891E+04    0.17305E-02   -0.18519E-02 14197   0.162E-01    0.498E-01
RMM:   6    -0.115889124151E+04   -0.26260E-03   -0.37576E-03 16862   0.531E-02    0.267E-01
RMM:   7    -0.115889132403E+04   -0.82522E-04   -0.13414E-03 14740   0.317E-02    0.121E-01
RMM:   8    -0.115889141624E+04   -0.92209E-04   -0.45621E-04 11650   0.217E-02
  10 F= -.11588914E+04 E0= -.11588914E+04  d E =-.346114E+00  mag=    10.0000
       N       E                     dE             d eps       ncg     rms          rms(c)
DAV:   1    -0.115895754204E+04   -0.66218E-01   -0.10883E+01 13352   0.375E+00    0.154E+00
RMM:   2    -0.115898209065E+04   -0.24549E-01   -0.34616E-01 12297   0.758E-01    0.146E+00
RMM:   3    -0.115898042193E+04    0.16687E-02   -0.19027E-02 12947   0.233E-01    0.948E-01
RMM:   4    -0.115897746638E+04    0.29555E-02   -0.13153E-02 13078   0.118E-01    0.408E-01
RMM:   5    -0.115897683628E+04    0.63011E-03   -0.28422E-03 12294   0.671E-02    0.161E-01
RMM:   6    -0.115897682927E+04    0.70037E-05   -0.49030E-04 10678   0.230E-02    0.125E-01
RMM:   7    -0.115897683654E+04   -0.72625E-05   -0.88194E-05  8146   0.130E-02    0.770E-02
RMM:   8    -0.115897686300E+04   -0.26461E-04   -0.89081E-05  7763   0.117E-02
  11 F= -.11589769E+04 E0= -.11589769E+04  d E =-.854468E-01  mag=    10.0000
       N       E                     dE             d eps       ncg     rms          rms(c)
DAV:   1    -0.115898670280E+04   -0.98663E-02   -0.87568E+00 12864   0.333E+00    0.134E+00
RMM:   2    -0.115901092387E+04   -0.24221E-01   -0.24725E-01 12305   0.633E-01    0.105E+00
RMM:   3    -0.115901126019E+04   -0.33632E-03   -0.14299E-02 12744   0.211E-01    0.638E-01
RMM:   4    -0.115901003273E+04    0.12275E-02   -0.71159E-03 13658   0.905E-02    0.253E-01
RMM:   5    -0.115900994766E+04    0.85072E-04   -0.15906E-03 12559   0.450E-02    0.202E-01
RMM:   6    -0.115900995920E+04   -0.11544E-04   -0.25758E-04  9052   0.174E-02    0.702E-02
RMM:   7    -0.115900997620E+04   -0.16998E-04   -0.90590E-05  7757   0.122E-02    0.408E-02
RMM:   8    -0.115901000661E+04   -0.30417E-04   -0.74024E-05  7439   0.107E-02
  12 F= -.11590100E+04 E0= -.11590100E+04  d E =-.331436E-01  mag=    10.0000
       N       E                     dE             d eps       ncg     rms          rms(c)
DAV:   1    -0.115816526728E+04    0.84471E+00   -0.17285E+02 12504   0.139E+01    0.581E+00
RMM:   2    -0.115880467758E+04   -0.63941E+00   -0.69739E+00 12299   0.292E+00    0.645E+00
RMM:   3    -0.115880567709E+04   -0.99951E-03   -0.41359E-01 14585   0.835E-01    0.567E+00
RMM:   4    -0.115875983448E+04    0.45843E-01   -0.17866E-01 13692   0.411E-01    0.259E+00
RMM:   5    -0.115876526399E+04   -0.54295E-02   -0.54515E-02 13344   0.262E-01    0.668E-01
RMM:   6    -0.115876295370E+04    0.23103E-02   -0.85346E-03 14997   0.984E-02    0.561E-01
RMM:   7    -0.115876141900E+04    0.15347E-02   -0.39558E-03 15167   0.510E-02    0.265E-01
RMM:   8    -0.115876103446E+04    0.38453E-03   -0.17185E-03 13335   0.380E-02    0.102E-01
RMM:   9    -0.115876105001E+04   -0.15544E-04   -0.44218E-04 10256   0.219E-02
  13 F= -.11587611E+04 E0= -.11587611E+04  d E =0.248957E+00  mag=    10.0000
       N       E                     dE             d eps       ncg     rms          rms(c)
DAV:   1    -0.115895380186E+04   -0.19277E+00   -0.75566E+01 12440   0.896E+00    0.530E+00
RMM:   2    -0.115921087853E+04   -0.25708E+00   -0.32353E+00 12288   0.201E+00    0.510E+00
RMM:   3    -0.115918984172E+04    0.21037E-01   -0.15118E-01 13185   0.498E-01    0.364E+00
RMM:   4    -0.115918491762E+04    0.49241E-02   -0.94706E-02 12917   0.305E-01    0.816E-01
RMM:   5    -0.115918166928E+04    0.32483E-02   -0.13454E-02 14052   0.125E-01    0.337E-01
RMM:   6    -0.115918147476E+04    0.19452E-03   -0.19068E-03 13930   0.386E-02    0.213E-01
RMM:   7    -0.115918155544E+04   -0.80679E-04   -0.10351E-03 12225   0.293E-02    0.758E-02
RMM:   8    -0.115918158139E+04   -0.25950E-04   -0.22375E-04  8998   0.176E-02
  14 F= -.11591816E+04 E0= -.11591816E+04  d E =-.420531E+00  mag=    10.0000
       N       E                     dE             d eps       ncg     rms          rms(c)
DAV:   1    -0.115919106695E+04   -0.95115E-02   -0.87887E+00 12728   0.342E+00    0.915E-01
RMM:   2    -0.115920864577E+04   -0.17579E-01   -0.25402E-01 12315   0.650E-01    0.913E-01
RMM:   3    -0.115920791125E+04    0.73452E-03   -0.13174E-02 12799   0.208E-01    0.619E-01
RMM:   4    -0.115920655206E+04    0.13592E-02   -0.52850E-03 13526   0.806E-02    0.311E-01
RMM:   5    -0.115920618817E+04    0.36389E-03   -0.15716E-03 12265   0.463E-02    0.181E-01
RMM:   6    -0.115920618417E+04    0.39984E-05   -0.16790E-04  8502   0.167E-02    0.574E-02
RMM:   7    -0.115920618776E+04   -0.35911E-05   -0.69281E-05  7672   0.113E-02    0.384E-02
RMM:   8    -0.115920620559E+04   -0.17834E-04   -0.53222E-05  7335   0.101E-02
  15 F= -.11592062E+04 E0= -.11592062E+04  d E =-.246242E-01  mag=    10.0000
       N       E                     dE             d eps       ncg     rms          rms(c)
DAV:   1    -0.115921362381E+04   -0.74361E-02   -0.12104E+00 12976   0.127E+00    0.378E-01
RMM:   2    -0.115921547236E+04   -0.18485E-02   -0.36781E-02 12338   0.248E-01    0.374E-01
RMM:   3    -0.115921526314E+04    0.20922E-03   -0.20063E-03 12817   0.797E-02    0.249E-01
RMM:   4    -0.115921495087E+04    0.31227E-03   -0.98934E-04 11374   0.346E-02    0.135E-01
RMM:   5    -0.115921486492E+04    0.85953E-04   -0.30173E-04  9611   0.236E-02    0.659E-02
RMM:   6    -0.115921487204E+04   -0.71243E-05   -0.52234E-05  7298   0.108E-02    0.295E-02
RMM:   7    -0.115921488020E+04   -0.81610E-05   -0.27896E-05  7118   0.730E-03    0.218E-02
RMM:   8    -0.115921489778E+04   -0.17579E-04   -0.25308E-05  7051   0.733E-03
  16 F= -.11592149E+04 E0= -.11592149E+04  d E =-.869219E-02  mag=    10.0000
       N       E                     dE             d eps       ncg     rms          rms(c)
DAV:   1    -0.115921472584E+04    0.15436E-03   -0.49784E+00 12792   0.258E+00    0.580E-01
RMM:   2    -0.115922618921E+04   -0.11463E-01   -0.12606E-01 12512   0.445E-01    0.426E-01
RMM:   3    -0.115922627924E+04   -0.90033E-04   -0.69490E-03 12682   0.157E-01    0.284E-01
RMM:   4    -0.115922603756E+04    0.24168E-03   -0.21852E-03 14341   0.497E-02    0.147E-01
RMM:   5    -0.115922602461E+04    0.12948E-04   -0.53914E-04 10863   0.230E-02    0.371E-02
RMM:   6    -0.115922603103E+04   -0.64175E-05   -0.82575E-05  7454   0.132E-02    0.224E-02
RMM:   7    -0.115922604384E+04   -0.12813E-04   -0.50382E-05  7222   0.928E-03    0.167E-02
RMM:   8    -0.115922605628E+04   -0.12435E-04   -0.31261E-05  6976   0.758E-03
  17 F= -.11592261E+04 E0= -.11592261E+04  d E =-.111585E-01  mag=    10.0000
       N       E                     dE             d eps       ncg     rms          rms(c)
DAV:   1    -0.115922647555E+04   -0.43171E-03   -0.28154E+00 12792   0.195E+00    0.493E-01
RMM:   2    -0.115923299693E+04   -0.65214E-02   -0.71306E-02 12768   0.334E-01    0.343E-01
RMM:   3    -0.115923300400E+04   -0.70741E-05   -0.37010E-03 12889   0.114E-01    0.214E-01
RMM:   4    -0.115923282655E+04    0.17745E-03   -0.11474E-03 13026   0.381E-02    0.103E-01
RMM:   5    -0.115923281859E+04    0.79621E-05   -0.27605E-04  8665   0.206E-02    0.478E-02
RMM:   6    -0.115923282854E+04   -0.99466E-05   -0.65152E-05  7285   0.125E-02    0.270E-02
RMM:   7    -0.115923283768E+04   -0.91394E-05   -0.38585E-05  7078   0.880E-03    0.167E-02
RMM:   8    -0.115923284947E+04   -0.11796E-04   -0.27855E-05  6892   0.725E-03
  18 F= -.11592328E+04 E0= -.11592328E+04  d E =-.679320E-02  mag=    10.0000
       N       E                     dE             d eps       ncg     rms          rms(c)
DAV:   1    -0.115921347231E+04    0.19365E-01   -0.12612E+01 12600   0.412E+00    0.882E-01
RMM:   2    -0.115924308700E+04   -0.29615E-01   -0.31370E-01 12701   0.704E-01    0.561E-01
RMM:   3    -0.115924344473E+04   -0.35773E-03   -0.16788E-02 13024   0.244E-01    0.365E-01
RMM:   4    -0.115924286348E+04    0.58125E-03   -0.46868E-03 15714   0.745E-02    0.185E-01
RMM:   5    -0.115924285914E+04    0.43455E-05   -0.12030E-03 13896   0.318E-02    0.596E-02
RMM:   6    -0.115924287234E+04   -0.13205E-04   -0.17787E-04  8277   0.169E-02    0.300E-02
RMM:   7    -0.115924288964E+04   -0.17301E-04   -0.10843E-04  7632   0.119E-02    0.200E-02
RMM:   8    -0.115924290632E+04   -0.16679E-04   -0.68022E-05  7315   0.103E-02
  19 F= -.11592429E+04 E0= -.11592429E+04  d E =-.100568E-01  mag=    10.0000
       N       E                     dE             d eps       ncg     rms          rms(c)
DAV:   1    -0.115923320391E+04    0.96857E-02   -0.60062E+00 12640   0.284E+00    0.604E-01
RMM:   2    -0.115924755032E+04   -0.14346E-01   -0.14836E-01 12784   0.484E-01    0.362E-01
RMM:   3    -0.115924771407E+04   -0.16376E-03   -0.76426E-03 13119   0.164E-01    0.230E-01
RMM:   4    -0.115924743877E+04    0.27530E-03   -0.20678E-03 15290   0.502E-02    0.118E-01
RMM:   5    -0.115924743419E+04    0.45827E-05   -0.58856E-04 11420   0.236E-02    0.371E-02
RMM:   6    -0.115924744403E+04   -0.98454E-05   -0.87825E-05  7455   0.136E-02    0.194E-02
RMM:   7    -0.115924745814E+04   -0.14108E-04   -0.65208E-05  7311   0.105E-02    0.153E-02
RMM:   8    -0.115924746883E+04   -0.10690E-04   -0.39499E-05  7053   0.838E-03
  20 F= -.11592475E+04 E0= -.11592475E+04  d E =-.456251E-02  mag=    10.0000
       N       E                     dE             d eps       ncg     rms          rms(c)
DAV:   1    -0.115924501772E+04    0.24404E-02   -0.20350E+00 12888   0.165E+00    0.348E-01
RMM:   2    -0.115925000400E+04   -0.49863E-02   -0.50106E-02 12912   0.282E-01    0.209E-01
RMM:   3    -0.115925005528E+04   -0.51279E-04   -0.24743E-03 12937   0.905E-02    0.128E-01
RMM:   4    -0.115924995101E+04    0.10427E-03   -0.59174E-04 11309   0.289E-02    0.657E-02
RMM:   5    -0.115924995047E+04    0.53704E-06   -0.18558E-04  7722   0.182E-02    0.247E-02
RMM:   6    -0.115924996038E+04   -0.99099E-05   -0.51705E-05  7181   0.115E-02    0.166E-02
RMM:   7    -0.115924996798E+04   -0.76005E-05   -0.33716E-05  6939   0.821E-03    0.133E-02
RMM:   8    -0.115924997934E+04   -0.11356E-04   -0.25728E-05  6864   0.731E-03
  21 F= -.11592500E+04 E0= -.11592500E+04  d E =-.251051E-02  mag=    10.0000
       N       E                     dE             d eps       ncg     rms          rms(c)
DAV:   1    -0.115924674435E+04    0.32236E-02   -0.22472E+00 12800   0.172E+00    0.359E-01
RMM:   2    -0.115925223925E+04   -0.54949E-02   -0.54207E-02 12889   0.292E-01    0.211E-01
RMM:   3    -0.115925232348E+04   -0.84231E-04   -0.27100E-03 12871   0.950E-02    0.129E-01
RMM:   4    -0.115925222223E+04    0.10125E-03   -0.60078E-04 11375   0.294E-02    0.693E-02
RMM:   5    -0.115925221854E+04    0.36895E-05   -0.21369E-04  7868   0.185E-02    0.236E-02
RMM:   6    -0.115925222796E+04   -0.94212E-05   -0.51091E-05  7154   0.118E-02    0.155E-02
RMM:   7    -0.115925223487E+04   -0.69100E-05   -0.33015E-05  6936   0.788E-03    0.124E-02
RMM:   8    -0.115925224493E+04   -0.10059E-04   -0.23927E-05  6844   0.736E-03
  22 F= -.11592522E+04 E0= -.11592522E+04  d E =-.226559E-02  mag=    10.0000
       N       E                     dE             d eps       ncg     rms          rms(c)
DAV:   1    -0.115924922372E+04    0.30112E-02   -0.20086E+00 12720   0.162E+00    0.318E-01
RMM:   2    -0.115925400813E+04   -0.47844E-02   -0.48403E-02 12820   0.275E-01    0.188E-01
RMM:   3    -0.115925405670E+04   -0.48566E-04   -0.24319E-03 12755   0.905E-02    0.120E-01
RMM:   4    -0.115925397120E+04    0.85494E-04   -0.54241E-04 10951   0.277E-02    0.649E-02
RMM:   5    -0.115925397042E+04    0.78492E-06   -0.18133E-04  7635   0.176E-02    0.201E-02
RMM:   6    -0.115925397959E+04   -0.91665E-05   -0.47062E-05  7116   0.113E-02    0.128E-02
RMM:   7    -0.115925398727E+04   -0.76836E-05   -0.30766E-05  6915   0.781E-03    0.109E-02
RMM:   8    -0.115925399466E+04   -0.73897E-05   -0.20817E-05  6779   0.681E-03
  23 F= -.11592540E+04 E0= -.11592540E+04  d E =-.174973E-02  mag=    10.0000
       N       E                     dE             d eps       ncg     rms          rms(c)
DAV:   1    -0.115925131783E+04    0.26694E-02   -0.17837E+00 12784   0.153E+00    0.292E-01
RMM:   2    -0.115925548496E+04   -0.41671E-02   -0.42660E-02 12864   0.257E-01    0.173E-01
RMM:   3    -0.115925549859E+04   -0.13628E-04   -0.20884E-03 12567   0.830E-02    0.109E-01
RMM:   4    -0.115925541589E+04    0.82695E-04   -0.47765E-04 10471   0.262E-02    0.568E-02
RMM:   5    -0.115925541656E+04   -0.66357E-06   -0.14660E-04  7432   0.166E-02    0.199E-02
RMM:   6    -0.115925542504E+04   -0.84838E-05   -0.43920E-05  7091   0.106E-02    0.132E-02
RMM:   7    -0.115925543083E+04   -0.57851E-05   -0.26850E-05  6829   0.750E-03    0.110E-02
RMM:   8    -0.115925543811E+04   -0.72883E-05   -0.19516E-05  6718   0.658E-03
  24 F= -.11592554E+04 E0= -.11592554E+04  d E =-.144346E-02  mag=    10.0000
       N       E                     dE             d eps       ncg     rms          rms(c)
DAV:   1    -0.115925350921E+04    0.19216E-02   -0.13378E+00 12784   0.133E+00    0.247E-01
RMM:   2    -0.115925661547E+04   -0.31063E-02   -0.32163E-02 12817   0.223E-01    0.149E-01
RMM:   3    -0.115925662133E+04   -0.58639E-05   -0.15942E-03 12206   0.729E-02    0.963E-02
RMM:   4    -0.115925656327E+04    0.58062E-04   -0.35823E-04  9214   0.230E-02    0.510E-02
RMM:   5    -0.115925656593E+04   -0.26608E-05   -0.11309E-04  7271   0.152E-02    0.191E-02
RMM:   6    -0.115925657294E+04   -0.70109E-05   -0.37309E-05  7016   0.971E-03    0.138E-02
RMM:   7    -0.115925657783E+04   -0.48898E-05   -0.22677E-05  6755   0.686E-03    0.103E-02
RMM:   8    -0.115925658380E+04   -0.59703E-05   -0.16064E-05  6600   0.608E-03
  25 F= -.11592566E+04 E0= -.11592566E+04  d E =-.114569E-02  mag=    10.0000
       N       E                     dE             d eps       ncg     rms          rms(c)
DAV:   1    -0.115925430413E+04    0.22737E-02   -0.13790E+00 12752   0.134E+00    0.248E-01
RMM:   2    -0.115925750103E+04   -0.31969E-02   -0.32901E-02 12868   0.225E-01    0.148E-01
RMM:   3    -0.115925750396E+04   -0.29388E-05   -0.15926E-03 12172   0.724E-02    0.942E-02
RMM:   4    -0.115925744313E+04    0.60840E-04   -0.35119E-04  9190   0.229E-02    0.498E-02
RMM:   5    -0.115925744528E+04   -0.21596E-05   -0.11295E-04  7265   0.150E-02    0.180E-02
RMM:   6    -0.115925745212E+04   -0.68303E-05   -0.36879E-05  7021   0.983E-03    0.123E-02
RMM:   7    -0.115925745669E+04   -0.45701E-05   -0.22681E-05  6767   0.676E-03    0.990E-03
RMM:   8    -0.115925746230E+04   -0.56161E-05   -0.15129E-05  6601   0.614E-03
  26 F= -.11592575E+04 E0= -.11592575E+04  d E =-.878498E-03  mag=    10.0000
       N       E                     dE             d eps       ncg     rms          rms(c)
DAV:   1    -0.115925685486E+04    0.60183E-03   -0.59556E-01 12992   0.884E-01    0.160E-01
RMM:   2    -0.115925821701E+04   -0.13622E-02   -0.14316E-02 12928   0.148E-01    0.953E-02
RMM:   3    -0.115925820316E+04    0.13844E-04   -0.64822E-04  9863   0.467E-02    0.614E-02
RMM:   4    -0.115925817675E+04    0.26414E-04   -0.14502E-04  7373   0.162E-02    0.307E-02
RMM:   5    -0.115925818363E+04   -0.68761E-05   -0.56291E-05  7069   0.108E-02    0.111E-02
RMM:   6    -0.115925818799E+04   -0.43583E-05   -0.21721E-05  6848   0.702E-03    0.914E-03
RMM:   7    -0.115925819135E+04   -0.33664E-05   -0.13672E-05  6435   0.515E-03    0.764E-03
RMM:   8    -0.115925819514E+04   -0.37923E-05   -0.90778E-06  5831   0.446E-03
  27 F= -.11592582E+04 E0= -.11592582E+04  d E =-.732843E-03  mag=    10.0000
       N       E                     dE             d eps       ncg     rms          rms(c)
DAV:   1    -0.115925790688E+04    0.28447E-03   -0.37653E-01 12816   0.702E-01    0.131E-01
RMM:   2    -0.115925876943E+04   -0.86255E-03   -0.90544E-03 12771   0.117E-01    0.787E-02
RMM:   3    -0.115925876006E+04    0.93683E-05   -0.39885E-04  8786   0.381E-02    0.504E-02
RMM:   4    -0.115925874386E+04    0.16204E-04   -0.98321E-05  7125   0.135E-02    0.263E-02
RMM:   5    -0.115925874875E+04   -0.48932E-05   -0.36728E-05  6942   0.886E-03    0.145E-02
RMM:   6    -0.115925875203E+04   -0.32795E-05   -0.16202E-05  6706   0.598E-03    0.883E-03
RMM:   7    -0.115925875472E+04   -0.26913E-05   -0.96595E-06  5932   0.453E-03    0.750E-03
RMM:   8    -0.115925875703E+04   -0.23054E-05   -0.60035E-06  5189   0.381E-03
  28 F= -.11592588E+04 E0= -.11592588E+04  d E =-.561886E-03  mag=    10.0000
