       N       E                     dE             d eps       ncg     rms          rms(c)
DAV:   1    -0.116092517774E+04   -0.11609E+04   -0.39527E-06  3960   0.576E-03    0.620E-03
RMM:   2    -0.116092518320E+04   -0.54563E-05   -0.10946E-05  2461   0.399E-03    0.739E-03
RMM:   3    -0.116092518477E+04   -0.15683E-05   -0.23748E-06  1438   0.212E-03    0.596E-03
RMM:   4    -0.116092518414E+04    0.62957E-06   -0.84861E-07  1197   0.211E-03    0.606E-03
RMM:   5    -0.116092518538E+04   -0.12408E-05   -0.51615E-07   955   0.182E-03    0.753E-03
RMM:   6    -0.116092518828E+04   -0.28989E-05   -0.12966E-06  1225   0.210E-03    0.936E-03
RMM:   7    -0.116092519005E+04   -0.17679E-05   -0.75644E-07   980   0.189E-03    0.949E-03
RMM:   8    -0.116092520394E+04   -0.13892E-04   -0.17525E-05  2302   0.511E-03
   1 F= -.11609252E+04 E0= -.11609252E+04  d E =-.116093E+04  mag=     8.0000
       N       E                     dE             d eps       ncg     rms          rms(c)
DAV:   1    -0.116092630516E+04   -0.11151E-02   -0.96288E-01  6432   0.114E+00    0.337E-01
RMM:   2    -0.116092800443E+04   -0.16993E-02   -0.29828E-02  6177   0.225E-01    0.300E-01
RMM:   3    -0.116092776452E+04    0.23991E-03   -0.16609E-03  6234   0.754E-02    0.199E-01
RMM:   4    -0.116092749867E+04    0.26585E-03   -0.10241E-03  5538   0.356E-02    0.103E-01
RMM:   5    -0.116092744183E+04    0.56842E-04   -0.16458E-04  4169   0.206E-02    0.346E-02
RMM:   6    -0.116092744337E+04   -0.15430E-05   -0.51487E-05  3606   0.102E-02    0.237E-02
RMM:   7    -0.116092744501E+04   -0.16447E-05   -0.19910E-05  3478   0.725E-03    0.202E-02
RMM:   8    -0.116092744651E+04   -0.14993E-05   -0.12160E-05  3357   0.517E-03
   2 F= -.11609274E+04 E0= -.11609274E+04  d E =-.224257E-02  mag=     8.0000
       N       E                     dE             d eps       ncg     rms          rms(c)
DAV:   1    -0.116092924969E+04   -0.18047E-02   -0.20489E-01  6256   0.510E-01    0.178E-01
RMM:   2    -0.116092948794E+04   -0.23825E-03   -0.72275E-03  6127   0.107E-01    0.188E-01
RMM:   3    -0.116092938778E+04    0.10015E-03   -0.35973E-04  4802   0.348E-02    0.134E-01
RMM:   4    -0.116092929590E+04    0.91881E-04   -0.45175E-04  5232   0.216E-02    0.643E-02
RMM:   5    -0.116092927100E+04    0.24902E-04   -0.64329E-05  3746   0.132E-02    0.243E-02
RMM:   6    -0.116092927045E+04    0.55310E-06   -0.21374E-05  3311   0.593E-03    0.190E-02
RMM:   7    -0.116092927113E+04   -0.67851E-06   -0.70659E-06  3029   0.440E-03    0.138E-02
RMM:   8    -0.116092927227E+04   -0.11416E-05   -0.59765E-06  3031   0.339E-03
   3 F= -.11609293E+04 E0= -.11609293E+04  d E =-.182576E-02  mag=     8.0000
       N       E                     dE             d eps       ncg     rms          rms(c)
DAV:   1    -0.116092992661E+04   -0.65548E-03   -0.27878E-01  6400   0.616E-01    0.141E-01
RMM:   2    -0.116093058213E+04   -0.65552E-03   -0.71279E-03  6406   0.108E-01    0.103E-01
RMM:   3    -0.116093057357E+04    0.85532E-05   -0.31062E-04  4307   0.341E-02    0.665E-02
RMM:   4    -0.116093055226E+04    0.21317E-04   -0.97341E-05  3542   0.133E-02    0.358E-02
RMM:   5    -0.116093055253E+04   -0.27615E-06   -0.33131E-05  3471   0.859E-03    0.170E-02
RMM:   6    -0.116093055415E+04   -0.16200E-05   -0.11969E-05  3378   0.569E-03    0.762E-03
RMM:   7    -0.116093055503E+04   -0.87667E-06   -0.66863E-06  2932   0.388E-03    0.567E-03
RMM:   8    -0.116093055574E+04   -0.71090E-06   -0.40753E-06  2566   0.340E-03
   4 F= -.11609306E+04 E0= -.11609306E+04  d E =-.128347E-02  mag=     8.0000
       N       E                     dE             d eps       ncg     rms          rms(c)
DAV:   1    -0.116093106223E+04   -0.50720E-03   -0.20952E-01  6336   0.534E-01    0.117E-01
RMM:   2    -0.116093154462E+04   -0.48239E-03   -0.53609E-03  6379   0.913E-02    0.821E-02
RMM:   3    -0.116093153495E+04    0.96691E-05   -0.22684E-04  4004   0.297E-02    0.522E-02
RMM:   4    -0.116093152055E+04    0.14396E-04   -0.76626E-05  3520   0.115E-02    0.269E-02
RMM:   5    -0.116093152085E+04   -0.29818E-06   -0.25166E-05  3455   0.742E-03    0.122E-02
RMM:   6    -0.116093152203E+04   -0.11753E-05   -0.98043E-06  3309   0.499E-03    0.708E-03
RMM:   7    -0.116093152268E+04   -0.65836E-06   -0.53958E-06  2759   0.357E-03    0.521E-03
RMM:   8    -0.116093152320E+04   -0.51160E-06   -0.34068E-06  2370   0.312E-03
   5 F= -.11609315E+04 E0= -.11609315E+04  d E =-.967456E-03  mag=     8.0000
       N       E                     dE             d eps       ncg     rms          rms(c)
DAV:   1    -0.116093121220E+04    0.31048E-03   -0.80076E-01  6424   0.104E+00    0.222E-01
RMM:   2    -0.116093311422E+04   -0.19020E-02   -0.19737E-02  6472   0.177E-01    0.145E-01
RMM:   3    -0.116093311319E+04    0.10211E-05   -0.91989E-04  5547   0.553E-02    0.902E-02
RMM:   4    -0.116093306266E+04    0.50534E-04   -0.19481E-04  3841   0.191E-02    0.443E-02
RMM:   5    -0.116093306339E+04   -0.73214E-06   -0.79828E-05  3549   0.128E-02    0.118E-02
RMM:   6    -0.116093306636E+04   -0.29637E-05   -0.24619E-05  3483   0.852E-03    0.786E-03
RMM:   7    -0.116093306805E+04   -0.16912E-05   -0.16137E-05  3327   0.532E-03    0.556E-03
RMM:   8    -0.116093306896E+04   -0.91645E-06   -0.88340E-06  3153   0.509E-03
   6 F= -.11609331E+04 E0= -.11609331E+04  d E =-.154577E-02  mag=     8.0000
