       N       E                     dE             d eps       ncg     rms          rms(c)
DAV:   1     0.120169443795E+05    0.12017E+05   -0.42315E+05  6168   0.132E+03
DAV:   2     0.694089948865E+03   -0.11323E+05   -0.10120E+05  6144   0.378E+02
DAV:   3    -0.135193054092E+04   -0.20460E+04   -0.19701E+04  6600   0.167E+02
DAV:   4    -0.149142609599E+04   -0.13950E+03   -0.13692E+03  8096   0.459E+01
DAV:   5    -0.150059194641E+04   -0.91659E+01   -0.91159E+01 11088   0.109E+01    0.183E+02
RMM:   6    -0.116320384495E+04    0.33739E+03   -0.16311E+03  6254   0.357E+01    0.120E+02
RMM:   7    -0.114608527265E+04    0.17119E+02   -0.66671E+01  6404   0.121E+01    0.749E+01
RMM:   8    -0.114954329138E+04   -0.34580E+01   -0.23613E+01  7090   0.561E+00    0.398E+01
RMM:   9    -0.115483784210E+04   -0.52946E+01   -0.76455E+00  6803   0.316E+00    0.186E+01
RMM:  10    -0.115520787542E+04   -0.37003E+00   -0.65362E+00  6993   0.276E+00    0.149E+01
RMM:  11    -0.115620276823E+04   -0.99489E+00   -0.93621E-01  8002   0.912E-01    0.880E+00
RMM:  12    -0.115744840998E+04   -0.12456E+01   -0.11192E+00  6422   0.112E+00    0.740E+00
RMM:  13    -0.115831693382E+04   -0.86852E+00   -0.91196E-01  6872   0.955E-01    0.285E+00
RMM:  14    -0.115844745828E+04   -0.13052E+00   -0.19620E-01  7397   0.465E-01    0.138E+00
RMM:  15    -0.115849117626E+04   -0.43718E-01   -0.89544E-02  7447   0.286E-01    0.107E+00
RMM:  16    -0.115853401329E+04   -0.42837E-01   -0.59149E-02  6974   0.220E-01    0.786E-01
RMM:  17    -0.115854437989E+04   -0.10367E-01   -0.21127E-02  7211   0.143E-01    0.342E-01
RMM:  18    -0.115854642248E+04   -0.20426E-02   -0.59758E-03  7383   0.744E-02    0.183E-01
RMM:  19    -0.115854870702E+04   -0.22845E-02   -0.33710E-03  6902   0.494E-02    0.136E-01
RMM:  20    -0.115855074269E+04   -0.20357E-02   -0.19669E-03  5758   0.426E-02    0.124E-01
RMM:  21    -0.115855260985E+04   -0.18672E-02   -0.16743E-03  5269   0.385E-02    0.115E-01
RMM:  22    -0.115855552957E+04   -0.29197E-02   -0.32637E-03  5383   0.564E-02    0.107E-01
RMM:  23    -0.115856114042E+04   -0.56108E-02   -0.17545E-02  5589   0.137E-01    0.921E-02
RMM:  24    -0.115856421967E+04   -0.30792E-02   -0.10251E-02  5655   0.939E-02    0.813E-02
RMM:  25    -0.115856611227E+04   -0.18926E-02   -0.51445E-03  5524   0.658E-02    0.733E-02
RMM:  26    -0.115856822537E+04   -0.21131E-02   -0.12296E-02  5509   0.116E-01    0.712E-02
RMM:  27    -0.115856926353E+04   -0.10382E-02   -0.23417E-03  5235   0.407E-02    0.530E-02
RMM:  28    -0.115856976035E+04   -0.49682E-03   -0.14028E-02  5545   0.130E-01    0.818E-02
RMM:  29    -0.115857102830E+04   -0.12680E-02   -0.14684E-03  5054   0.370E-02    0.344E-02
RMM:  30    -0.115857131684E+04   -0.28854E-03   -0.13620E-03  4833   0.363E-02    0.319E-02
RMM:  31    -0.115857150243E+04   -0.18559E-03   -0.69719E-04  4404   0.234E-02    0.306E-02
RMM:  32    -0.115857167637E+04   -0.17394E-03   -0.63219E-04  4294   0.230E-02    0.300E-02
RMM:  33    -0.115857178960E+04   -0.11323E-03   -0.31249E-04  4016   0.167E-02    0.342E-02
RMM:  34    -0.115857190137E+04   -0.11177E-03   -0.20186E-04  3718   0.131E-02    0.329E-02
RMM:  35    -0.115857201751E+04   -0.11614E-03   -0.26975E-04  3835   0.149E-02    0.310E-02
RMM:  36    -0.115857227405E+04   -0.25654E-03   -0.17312E-03  4861   0.430E-02    0.177E-02
RMM:  37    -0.115857239880E+04   -0.12475E-03   -0.66584E-04  4182   0.233E-02    0.115E-02
RMM:  38    -0.115857243564E+04   -0.36838E-04   -0.16093E-04  3624   0.116E-02
   1 F= -.11585724E+04 E0= -.11585724E+04  d E =-.115857E+04  mag=     7.9998
       N       E                     dE             d eps       ncg     rms          rms(c)
DAV:   1    -0.113859532319E+04    0.19977E+02   -0.17632E+03  6224   0.432E+01    0.282E+01
RMM:   2    -0.115976742920E+04   -0.21172E+02   -0.28842E+02  6343   0.115E+01    0.173E+01
RMM:   3    -0.115673773150E+04    0.30297E+01   -0.20120E+01  6652   0.436E+00    0.132E+01
RMM:   4    -0.115440504903E+04    0.23327E+01   -0.63189E+00  7113   0.184E+00    0.891E+00
RMM:   5    -0.115523463549E+04   -0.82959E+00   -0.49095E+00  6462   0.104E+00    0.103E+01
RMM:   6    -0.115443641572E+04    0.79822E+00   -0.41154E+00  6733   0.125E+00    0.399E+00
RMM:   7    -0.115414400093E+04    0.29241E+00   -0.19169E-01  6422   0.531E-01    0.193E+00
RMM:   8    -0.115409427380E+04    0.49727E-01   -0.78180E-02  7038   0.211E-01    0.115E+00
RMM:   9    -0.115407521189E+04    0.19062E-01   -0.38075E-02  7012   0.128E-01    0.365E-01
RMM:  10    -0.115407500123E+04    0.21066E-03   -0.68913E-03  7256   0.684E-02    0.223E-01
RMM:  11    -0.115407616481E+04   -0.11636E-02   -0.44888E-03  6956   0.441E-02    0.239E-01
RMM:  12    -0.115407614345E+04    0.21365E-04   -0.84666E-04  5550   0.258E-02
   2 F= -.11540761E+04 E0= -.11540761E+04  d E =0.449629E+01  mag=     7.9995
       N       E                     dE             d eps       ncg     rms          rms(c)
DAV:   1    -0.115713573148E+04   -0.30596E+01   -0.50513E+02  6272   0.190E+01    0.152E+01
RMM:   2    -0.115839407657E+04   -0.12583E+01   -0.21737E+01  6147   0.496E+00    0.144E+01
RMM:   3    -0.115822521711E+04    0.16886E+00   -0.15503E+00  6646   0.148E+00    0.961E+00
RMM:   4    -0.115847083986E+04   -0.24562E+00   -0.16702E+00  6494   0.105E+00    0.658E+00
RMM:   5    -0.115802891533E+04    0.44192E+00   -0.51225E-01  6783   0.574E-01    0.123E+00
RMM:   6    -0.115801201083E+04    0.16904E-01   -0.48152E-02  6789   0.214E-01    0.721E-01
RMM:   7    -0.115801067804E+04    0.13328E-02   -0.12288E-02  7258   0.109E-01    0.341E-01
RMM:   8    -0.115801036538E+04    0.31266E-03   -0.38060E-03  7523   0.529E-02    0.128E-01
RMM:   9    -0.115801026549E+04    0.99892E-04   -0.73987E-04  6622   0.246E-02
   3 F= -.11580103E+04 E0= -.11580103E+04  d E =-.393412E+01  mag=     8.0000
       N       E                     dE             d eps       ncg     rms          rms(c)
DAV:   1    -0.115870235664E+04   -0.69199E+00   -0.24959E+02  6280   0.159E+01    0.545E+00
RMM:   2    -0.115943762674E+04   -0.73527E+00   -0.95340E+00  6158   0.313E+00    0.706E+00
RMM:   3    -0.115934936314E+04    0.88264E-01   -0.37295E-01  6616   0.855E-01    0.563E+00
RMM:   4    -0.115931390798E+04    0.35455E-01   -0.19809E-01  6502   0.431E-01    0.299E+00
RMM:   5    -0.115927108318E+04    0.42825E-01   -0.91742E-02  6272   0.298E-01    0.682E-01
RMM:   6    -0.115926741970E+04    0.36635E-02   -0.87899E-03  6433   0.995E-02    0.394E-01
RMM:   7    -0.115926634258E+04    0.10771E-02   -0.38129E-03  6201   0.483E-02    0.195E-01
RMM:   8    -0.115926619998E+04    0.14260E-03   -0.74058E-04  5404   0.299E-02    0.100E-01
RMM:   9    -0.115926619756E+04    0.24183E-05   -0.27026E-04  4452   0.178E-02
   4 F= -.11592662E+04 E0= -.11592662E+04  d E =-.125593E+01  mag=     8.0000
       N       E                     dE             d eps       ncg     rms          rms(c)
DAV:   1    -0.115978767932E+04   -0.52148E+00   -0.53280E+01  6464   0.650E+00    0.251E+00
RMM:   2    -0.115988832894E+04   -0.10065E+00   -0.14301E+00  6187   0.123E+00    0.179E+00
RMM:   3    -0.115987712973E+04    0.11199E-01   -0.95568E-02  6255   0.427E-01    0.980E-01
RMM:   4    -0.115986804138E+04    0.90884E-02   -0.37868E-02  6552   0.178E-01    0.499E-01
RMM:   5    -0.115986578710E+04    0.22543E-02   -0.71357E-03  6372   0.939E-02    0.255E-01
RMM:   6    -0.115986570899E+04    0.78117E-04   -0.13025E-03  6789   0.299E-02    0.172E-01
RMM:   7    -0.115986571462E+04   -0.56297E-05   -0.50058E-04  5564   0.210E-02    0.723E-02
RMM:   8    -0.115986571813E+04   -0.35178E-05   -0.13676E-04  4202   0.143E-02
   5 F= -.11598657E+04 E0= -.11598657E+04  d E =-.599521E+00  mag=     8.0000
       N       E                     dE             d eps       ncg     rms          rms(c)
DAV:   1    -0.116012544975E+04   -0.25974E+00   -0.25194E+01  6352   0.468E+00    0.188E+00
RMM:   2    -0.116017926750E+04   -0.53818E-01   -0.74279E-01  6146   0.928E-01    0.159E+00
RMM:   3    -0.116017453449E+04    0.47330E-02   -0.51219E-02  6367   0.320E-01    0.965E-01
RMM:   4    -0.116017095804E+04    0.35765E-02   -0.19473E-02  6371   0.140E-01    0.475E-01
RMM:   5    -0.116016949595E+04    0.14621E-02   -0.39997E-03  6091   0.729E-02    0.147E-01
RMM:   6    -0.116016955014E+04   -0.54194E-04   -0.76280E-04  5755   0.234E-02    0.880E-02
RMM:   7    -0.116016957946E+04   -0.29324E-04   -0.18899E-04  4250   0.147E-02    0.511E-02
RMM:   8    -0.116016962453E+04   -0.45063E-04   -0.10535E-04  3951   0.108E-02
   6 F= -.11601696E+04 E0= -.11601696E+04  d E =-.303906E+00  mag=     8.0000
       N       E                     dE             d eps       ncg     rms          rms(c)
DAV:   1    -0.116026411395E+04   -0.94534E-01   -0.43094E+01  6400   0.650E+00    0.252E+00
RMM:   2    -0.116037113708E+04   -0.10702E+00   -0.13763E+00  6150   0.132E+00    0.252E+00
RMM:   3    -0.116036202915E+04    0.91079E-02   -0.87823E-02  6703   0.427E-01    0.179E+00
RMM:   4    -0.116035611236E+04    0.59168E-02   -0.43661E-02  6520   0.203E-01    0.752E-01
RMM:   5    -0.116035311787E+04    0.29945E-02   -0.81912E-03  6581   0.106E-01    0.219E-01
RMM:   6    -0.116035308610E+04    0.31773E-04   -0.14063E-03  6732   0.332E-02    0.145E-01
RMM:   7    -0.116035314886E+04   -0.62761E-04   -0.48412E-04  5516   0.205E-02    0.789E-02
RMM:   8    -0.116035323853E+04   -0.89668E-04   -0.22438E-04  4403   0.158E-02
   7 F= -.11603532E+04 E0= -.11603532E+04  d E =-.183614E+00  mag=     8.0000
       N       E                     dE             d eps       ncg     rms          rms(c)
DAV:   1    -0.116036230231E+04   -0.91535E-02   -0.52809E+00  6560   0.259E+00    0.750E-01
RMM:   2    -0.116037611482E+04   -0.13813E-01   -0.14265E-01  6176   0.479E-01    0.620E-01
RMM:   3    -0.116037637192E+04   -0.25710E-03   -0.83118E-03  6502   0.166E-01    0.399E-01
RMM:   4    -0.116037602910E+04    0.34281E-03   -0.28705E-03  6788   0.578E-02    0.216E-01
RMM:   5    -0.116037599127E+04    0.37837E-04   -0.84492E-04  5762   0.304E-02    0.607E-02
RMM:   6    -0.116037602333E+04   -0.32062E-04   -0.10028E-04  3801   0.148E-02    0.378E-02
RMM:   7    -0.116037607881E+04   -0.55481E-04   -0.77285E-05  3647   0.979E-03    0.304E-02
RMM:   8    -0.116037612800E+04   -0.49194E-04   -0.48772E-05  3552   0.918E-03
   8 F= -.11603761E+04 E0= -.11603761E+04  d E =-.228895E-01  mag=     8.0000
       N       E                     dE             d eps       ncg     rms          rms(c)
DAV:   1    -0.116037926600E+04   -0.31872E-02   -0.45894E+00  6400   0.240E+00    0.610E-01
RMM:   2    -0.116039074024E+04   -0.11474E-01   -0.12083E-01  6207   0.428E-01    0.586E-01
RMM:   3    -0.116039073083E+04    0.94039E-05   -0.64198E-03  6418   0.146E-01    0.402E-01
RMM:   4    -0.116039056880E+04    0.16204E-03   -0.21647E-03  6395   0.496E-02    0.244E-01
RMM:   5    -0.116039044468E+04    0.12412E-03   -0.80442E-04  5583   0.289E-02    0.532E-02
RMM:   6    -0.116039046704E+04   -0.22358E-04   -0.81746E-05  3739   0.147E-02    0.349E-02
RMM:   7    -0.116039050105E+04   -0.34012E-04   -0.59862E-05  3604   0.863E-03    0.267E-02
RMM:   8    -0.116039053550E+04   -0.34445E-04   -0.38293E-05  3508   0.813E-03
   9 F= -.11603905E+04 E0= -.11603905E+04  d E =-.144075E-01  mag=     8.0000
       N       E                     dE             d eps       ncg     rms          rms(c)
DAV:   1    -0.116039169228E+04   -0.11912E-02   -0.98817E+00  6368   0.358E+00    0.801E-01
RMM:   2    -0.116041519536E+04   -0.23503E-01   -0.24375E-01  6311   0.615E-01    0.587E-01
RMM:   3    -0.116041547390E+04   -0.27854E-03   -0.13050E-02  6507   0.212E-01    0.373E-01
RMM:   4    -0.116041495753E+04    0.51636E-03   -0.36710E-03  7396   0.669E-02    0.208E-01
RMM:   5    -0.116041490520E+04    0.52327E-04   -0.11777E-03  6375   0.328E-02    0.554E-02
RMM:   6    -0.116041493692E+04   -0.31718E-04   -0.13988E-04  4008   0.168E-02    0.385E-02
RMM:   7    -0.116041499375E+04   -0.56829E-04   -0.10436E-04  3760   0.110E-02    0.277E-02
RMM:   8    -0.116041503995E+04   -0.46202E-04   -0.65965E-05  3618   0.101E-02
  10 F= -.11604150E+04 E0= -.11604150E+04  d E =-.245045E-01  mag=     8.0000
       N       E                     dE             d eps       ncg     rms          rms(c)
DAV:   1    -0.116039798915E+04    0.17005E-01   -0.16242E+01  6352   0.458E+00    0.973E-01
RMM:   2    -0.116043557925E+04   -0.37590E-01   -0.39824E-01  6315   0.780E-01    0.710E-01
RMM:   3    -0.116043581039E+04   -0.23113E-03   -0.21224E-02  6506   0.270E-01    0.460E-01
RMM:   4    -0.116043492880E+04    0.88158E-03   -0.58613E-03  7812   0.849E-02    0.261E-01
RMM:   5    -0.116043483508E+04    0.93725E-04   -0.18633E-03  6996   0.400E-02    0.726E-02
RMM:   6    -0.116043488125E+04   -0.46169E-04   -0.22699E-04  4534   0.197E-02    0.450E-02
RMM:   7    -0.116043495012E+04   -0.68871E-04   -0.16690E-04  4086   0.129E-02    0.317E-02
RMM:   8    -0.116043501522E+04   -0.65103E-04   -0.10678E-04  3802   0.122E-02
  11 F= -.11604350E+04 E0= -.11604350E+04  d E =-.199753E-01  mag=     8.0000
       N       E                     dE             d eps       ncg     rms          rms(c)
DAV:   1    -0.116043780645E+04   -0.28563E-02   -0.30165E+00  6440   0.195E+00    0.460E-01
RMM:   2    -0.116044500375E+04   -0.71973E-02   -0.81792E-02  6179   0.350E-01    0.478E-01
RMM:   3    -0.116044489975E+04    0.10400E-03   -0.43804E-03  6409   0.120E-01    0.356E-01
RMM:   4    -0.116044485557E+04    0.44174E-04   -0.14787E-03  6363   0.413E-02    0.224E-01
RMM:   5    -0.116044474338E+04    0.11220E-03   -0.64030E-04  5542   0.261E-02    0.474E-02
RMM:   6    -0.116044476054E+04   -0.17160E-04   -0.80559E-05  3700   0.138E-02    0.346E-02
RMM:   7    -0.116044478624E+04   -0.25700E-04   -0.54269E-05  3545   0.839E-03    0.262E-02
RMM:   8    -0.116044482153E+04   -0.35292E-04   -0.38835E-05  3465   0.871E-03
  12 F= -.11604448E+04 E0= -.11604448E+04  d E =-.980631E-02  mag=     8.0000
       N       E                     dE             d eps       ncg     rms          rms(c)
DAV:   1    -0.116044184242E+04    0.29438E-02   -0.57900E+00  6328   0.274E+00    0.489E-01
RMM:   2    -0.116045464846E+04   -0.12806E-01   -0.13966E-01  6393   0.457E-01    0.320E-01
RMM:   3    -0.116045455671E+04    0.91743E-04   -0.69055E-03  6493   0.153E-01    0.209E-01
RMM:   4    -0.116045428441E+04    0.27230E-03   -0.18610E-03  7018   0.488E-02    0.109E-01
RMM:   5    -0.116045430015E+04   -0.15733E-04   -0.51448E-04  5514   0.240E-02    0.354E-02
RMM:   6    -0.116045432803E+04   -0.27882E-04   -0.78636E-05  3697   0.136E-02    0.272E-02
RMM:   7    -0.116045437448E+04   -0.46452E-04   -0.74571E-05  3621   0.983E-03    0.226E-02
RMM:   8    -0.116045441674E+04   -0.42258E-04   -0.50446E-05  3523   0.912E-03
  13 F= -.11604544E+04 E0= -.11604544E+04  d E =-.959521E-02  mag=     8.0000
       N       E                     dE             d eps       ncg     rms          rms(c)
DAV:   1    -0.116045265040E+04    0.17241E-02   -0.37195E+00  6312   0.221E+00    0.386E-01
RMM:   2    -0.116046096502E+04   -0.83146E-02   -0.90608E-02  6356   0.369E-01    0.257E-01
RMM:   3    -0.116046092708E+04    0.37944E-04   -0.45405E-03  6457   0.127E-01    0.168E-01
RMM:   4    -0.116046077485E+04    0.15223E-03   -0.12520E-03  6634   0.403E-02    0.880E-02
RMM:   5    -0.116046079948E+04   -0.24627E-04   -0.31708E-04  4721   0.211E-02    0.294E-02
RMM:   6    -0.116046082565E+04   -0.26165E-04   -0.63250E-05  3615   0.124E-02    0.241E-02
RMM:   7    -0.116046086293E+04   -0.37283E-04   -0.62433E-05  3559   0.989E-03    0.213E-02
RMM:   8    -0.116046090483E+04   -0.41903E-04   -0.49395E-05  3467   0.877E-03
  14 F= -.11604609E+04 E0= -.11604609E+04  d E =-.648809E-02  mag=     8.0000
       N       E                     dE             d eps       ncg     rms          rms(c)
DAV:   1    -0.116046019550E+04    0.66743E-03   -0.25320E+00  6344   0.182E+00    0.315E-01
RMM:   2    -0.116046581550E+04   -0.56200E-02   -0.61407E-02  6380   0.304E-01    0.203E-01
RMM:   3    -0.116046577551E+04    0.39994E-04   -0.30418E-03  6391   0.103E-01    0.133E-01
RMM:   4    -0.116046567429E+04    0.10122E-03   -0.81537E-04  6119   0.335E-02    0.658E-02
RMM:   5    -0.116046570114E+04   -0.26848E-04   -0.18745E-04  3905   0.188E-02    0.256E-02
RMM:   6    -0.116046572434E+04   -0.23206E-04   -0.56533E-05  3570   0.113E-02    0.216E-02
RMM:   7    -0.116046574256E+04   -0.18217E-04   -0.39552E-05  3476   0.892E-03    0.206E-02
RMM:   8    -0.116046577665E+04   -0.34094E-04   -0.38681E-05  3434   0.817E-03
  15 F= -.11604658E+04 E0= -.11604658E+04  d E =-.487182E-02  mag=     8.0000
       N       E                     dE             d eps       ncg     rms          rms(c)
DAV:   1    -0.116046517674E+04    0.56582E-03   -0.20721E+00  6400   0.165E+00    0.295E-01
RMM:   2    -0.116046987192E+04   -0.46952E-02   -0.49854E-02  6395   0.275E-01    0.175E-01
RMM:   3    -0.116046987253E+04   -0.60425E-06   -0.25063E-03  6323   0.948E-02    0.113E-01
RMM:   4    -0.116046979461E+04    0.77915E-04   -0.60496E-04  5656   0.296E-02    0.605E-02
RMM:   5    -0.116046981821E+04   -0.23594E-04   -0.16473E-04  3742   0.179E-02    0.240E-02
RMM:   6    -0.116046983645E+04   -0.18244E-04   -0.50855E-05  3543   0.110E-02    0.194E-02
RMM:   7    -0.116046985597E+04   -0.19524E-04   -0.37124E-05  3463   0.886E-03    0.178E-02
RMM:   8    -0.116046988508E+04   -0.29110E-04   -0.35107E-05  3405   0.757E-03
  16 F= -.11604699E+04 E0= -.11604699E+04  d E =-.410843E-02  mag=     8.0000
       N       E                     dE             d eps       ncg     rms          rms(c)
DAV:   1    -0.116046871540E+04    0.11406E-02   -0.19522E+00  6384   0.160E+00    0.265E-01
RMM:   2    -0.116047300612E+04   -0.42907E-02   -0.47047E-02  6407   0.266E-01    0.164E-01
RMM:   3    -0.116047295986E+04    0.46263E-04   -0.23136E-03  6270   0.894E-02    0.109E-01
RMM:   4    -0.116047288485E+04    0.75015E-04   -0.60851E-04  5682   0.294E-02    0.549E-02
RMM:   5    -0.116047289548E+04   -0.10634E-04   -0.13235E-04  3707   0.167E-02    0.212E-02
RMM:   6    -0.116047291205E+04   -0.16570E-04   -0.47722E-05  3536   0.103E-02    0.181E-02
RMM:   7    -0.116047292228E+04   -0.10231E-04   -0.28242E-05  3439   0.810E-03    0.166E-02
RMM:   8    -0.116047294307E+04   -0.20793E-04   -0.27814E-05  3384   0.696E-03
  17 F= -.11604729E+04 E0= -.11604729E+04  d E =-.305799E-02  mag=     8.0000
       N       E                     dE             d eps       ncg     rms          rms(c)
DAV:   1    -0.116047274399E+04    0.17829E-03   -0.10788E+00  6448   0.120E+00    0.201E-01
RMM:   2    -0.116047515296E+04   -0.24090E-02   -0.26126E-02  6381   0.200E-01    0.119E-01
RMM:   3    -0.116047514123E+04    0.11736E-04   -0.13066E-03  5910   0.685E-02    0.783E-02
RMM:   4    -0.116047510141E+04    0.39820E-04   -0.32884E-04  4401   0.223E-02    0.429E-02
RMM:   5    -0.116047511534E+04   -0.13932E-04   -0.82578E-05  3596   0.139E-02    0.197E-02
RMM:   6    -0.116047512652E+04   -0.11185E-04   -0.34514E-05  3504   0.884E-03    0.154E-02
RMM:   7    -0.116047513765E+04   -0.11130E-04   -0.22118E-05  3393   0.679E-03    0.139E-02
RMM:   8    -0.116047515166E+04   -0.14003E-04   -0.17906E-05  3294   0.598E-03
  18 F= -.11604752E+04 E0= -.11604752E+04  d E =-.220858E-02  mag=     8.0000
       N       E                     dE             d eps       ncg     rms          rms(c)
DAV:   1    -0.116047454606E+04    0.59159E-03   -0.10888E+00  6400   0.120E+00    0.200E-01
RMM:   2    -0.116047698153E+04   -0.24355E-02   -0.26351E-02  6419   0.200E-01    0.122E-01
RMM:   3    -0.116047696014E+04    0.21383E-04   -0.12621E-03  5880   0.657E-02    0.801E-02
RMM:   4    -0.116047691481E+04    0.45330E-04   -0.29024E-04  4251   0.217E-02    0.424E-02
RMM:   5    -0.116047692463E+04   -0.98152E-05   -0.86693E-05  3590   0.138E-02    0.182E-02
RMM:   6    -0.116047693320E+04   -0.85700E-05   -0.31747E-05  3485   0.904E-03    0.138E-02
RMM:   7    -0.116047694115E+04   -0.79468E-05   -0.20945E-05  3392   0.647E-03    0.122E-02
RMM:   8    -0.116047695062E+04   -0.94778E-05   -0.14942E-05  3258   0.573E-03
  19 F= -.11604770E+04 E0= -.11604770E+04  d E =-.179897E-02  mag=     8.0000
       N       E                     dE             d eps       ncg     rms          rms(c)
DAV:   1    -0.116047602651E+04    0.91464E-03   -0.11184E+00  6392   0.122E+00    0.206E-01
RMM:   2    -0.116047854742E+04   -0.25209E-02   -0.27006E-02  6388   0.203E-01    0.120E-01
RMM:   3    -0.116047853707E+04    0.10343E-04   -0.13168E-03  5956   0.684E-02    0.786E-02
RMM:   4    -0.116047848857E+04    0.48501E-04   -0.29158E-04  4209   0.218E-02    0.415E-02
RMM:   5    -0.116047849809E+04   -0.95139E-05   -0.84148E-05  3585   0.139E-02    0.174E-02
RMM:   6    -0.116047850597E+04   -0.78859E-05   -0.32487E-05  3493   0.896E-03    0.129E-02
RMM:   7    -0.116047851252E+04   -0.65500E-05   -0.20259E-05  3376   0.657E-03    0.114E-02
RMM:   8    -0.116047852058E+04   -0.80547E-05   -0.15631E-05  3253   0.578E-03
  20 F= -.11604785E+04 E0= -.11604785E+04  d E =-.156995E-02  mag=     8.0000
       N       E                     dE             d eps       ncg     rms          rms(c)
DAV:   1    -0.116047746593E+04    0.10466E-02   -0.10529E+00  6408   0.118E+00    0.201E-01
RMM:   2    -0.116047985940E+04   -0.23935E-02   -0.25464E-02  6441   0.197E-01    0.115E-01
RMM:   3    -0.116047984573E+04    0.13666E-04   -0.12083E-03  5853   0.642E-02    0.753E-02
RMM:   4    -0.116047979702E+04    0.48711E-04   -0.25223E-04  4062   0.209E-02    0.389E-02
RMM:   5    -0.116047980525E+04   -0.82291E-05   -0.81364E-05  3579   0.135E-02    0.176E-02
RMM:   6    -0.116047981203E+04   -0.67788E-05   -0.31994E-05  3485   0.889E-03    0.124E-02
RMM:   7    -0.116047981754E+04   -0.55162E-05   -0.19367E-05  3368   0.637E-03    0.110E-02
RMM:   8    -0.116047982312E+04   -0.55738E-05   -0.12842E-05  3198   0.555E-03
  21 F= -.11604798E+04 E0= -.11604798E+04  d E =-.130254E-02  mag=     8.0000
       N       E                     dE             d eps       ncg     rms          rms(c)
DAV:   1    -0.116047935423E+04    0.46331E-03   -0.53309E-01  6400   0.835E-01    0.141E-01
RMM:   2    -0.116048056210E+04   -0.12079E-02   -0.12899E-02  6424   0.140E-01    0.841E-02
RMM:   3    -0.116048054928E+04    0.12823E-04   -0.57812E-04  4820   0.447E-02    0.550E-02
RMM:   4    -0.116048052545E+04    0.23830E-04   -0.12723E-04  3643   0.154E-02    0.297E-02
RMM:   5    -0.116048053147E+04   -0.60272E-05   -0.48384E-05  3520   0.103E-02    0.169E-02
RMM:   6    -0.116048053592E+04   -0.44505E-05   -0.19611E-05  3400   0.691E-03    0.108E-02
RMM:   7    -0.116048053976E+04   -0.38377E-05   -0.12118E-05  3219   0.520E-03    0.993E-03
RMM:   8    -0.116048054315E+04   -0.33844E-05   -0.79706E-06  2875   0.433E-03
  22 F= -.11604805E+04 E0= -.11604805E+04  d E =-.720029E-03  mag=     8.0000
       N       E                     dE             d eps       ncg     rms          rms(c)
DAV:   1    -0.116047992126E+04    0.61851E-03   -0.57086E-01  6400   0.866E-01    0.154E-01
RMM:   2    -0.116048122942E+04   -0.13082E-02   -0.13680E-02  6343   0.144E-01    0.871E-02
RMM:   3    -0.116048123033E+04   -0.91040E-06   -0.66235E-04  5070   0.499E-02    0.562E-02
RMM:   4    -0.116048120515E+04    0.25180E-04   -0.13119E-04  3642   0.159E-02    0.321E-02
RMM:   5    -0.116048120937E+04   -0.42212E-05   -0.48776E-05  3518   0.105E-02    0.198E-02
RMM:   6    -0.116048121389E+04   -0.45230E-05   -0.21979E-05  3415   0.718E-03    0.106E-02
RMM:   7    -0.116048121715E+04   -0.32524E-05   -0.12396E-05  3170   0.539E-03    0.100E-02
RMM:   8    -0.116048121977E+04   -0.26269E-05   -0.83544E-06  2900   0.436E-03
  23 F= -.11604812E+04 E0= -.11604812E+04  d E =-.676628E-03  mag=     8.0000
