       N       E                     dE             d eps       ncg     rms          rms(c)
DAV:   1    -0.116132041960E+04   -0.11613E+04   -0.13495E-05  3704   0.875E-03    0.743E-03
RMM:   2    -0.116132042748E+04   -0.78725E-05   -0.14718E-05  3117   0.572E-03    0.104E-02
RMM:   3    -0.116132042952E+04   -0.20450E-05   -0.57261E-06  2346   0.283E-03    0.745E-03
RMM:   4    -0.116132042829E+04    0.12333E-05   -0.22824E-06  2005   0.309E-03    0.774E-03
RMM:   5    -0.116132042819E+04    0.99375E-07   -0.11024E-06  1257   0.207E-03    0.754E-03
RMM:   6    -0.116132043310E+04   -0.49074E-05   -0.19197E-06  1551   0.254E-03    0.791E-03
RMM:   7    -0.116132045125E+04   -0.18151E-04   -0.21933E-05  2675   0.558E-03    0.933E-03
RMM:   8    -0.116132046047E+04   -0.92253E-05   -0.12952E-05  1865   0.337E-03
   1 F= -.11613205E+04 E0= -.11613205E+04  d E =-.116132E+04  mag=     8.0000
       N       E                     dE             d eps       ncg     rms          rms(c)
DAV:   1    -0.116132152265E+04   -0.10714E-02   -0.80295E-01  6456   0.104E+00    0.292E-01
RMM:   2    -0.116132263927E+04   -0.11166E-02   -0.25297E-02  6157   0.207E-01    0.285E-01
RMM:   3    -0.116132239867E+04    0.24060E-03   -0.13516E-03  6148   0.693E-02    0.190E-01
RMM:   4    -0.116132213284E+04    0.26583E-03   -0.86893E-04  5457   0.322E-02    0.112E-01
RMM:   5    -0.116132205496E+04    0.77880E-04   -0.17806E-04  4179   0.211E-02    0.356E-02
RMM:   6    -0.116132205904E+04   -0.40811E-05   -0.56597E-05  3635   0.106E-02    0.315E-02
RMM:   7    -0.116132206171E+04   -0.26648E-05   -0.20393E-05  3488   0.758E-03    0.225E-02
RMM:   8    -0.116132206711E+04   -0.54034E-05   -0.17392E-05  3466   0.547E-03
   2 F= -.11613221E+04 E0= -.11613221E+04  d E =-.160664E-02  mag=     8.0000
       N       E                     dE             d eps       ncg     rms          rms(c)
DAV:   1    -0.116132369639E+04   -0.16347E-02   -0.19558E-01  6448   0.500E-01    0.156E-01
RMM:   2    -0.116132385345E+04   -0.15706E-03   -0.67475E-03  6080   0.106E-01    0.161E-01
RMM:   3    -0.116132376368E+04    0.89770E-04   -0.32347E-04  4761   0.342E-02    0.110E-01
RMM:   4    -0.116132366986E+04    0.93825E-04   -0.32052E-04  5075   0.192E-02    0.615E-02
RMM:   5    -0.116132364737E+04    0.22485E-04   -0.60087E-05  3680   0.118E-02    0.218E-02
RMM:   6    -0.116132364876E+04   -0.13928E-05   -0.19575E-05  3314   0.621E-03    0.179E-02
RMM:   7    -0.116132365001E+04   -0.12409E-05   -0.77097E-06  2989   0.452E-03    0.155E-02
RMM:   8    -0.116132365218E+04   -0.21742E-05   -0.65970E-06  2971   0.352E-03
   3 F= -.11613237E+04 E0= -.11613237E+04  d E =-.158507E-02  mag=     8.0000
       N       E                     dE             d eps       ncg     rms          rms(c)
DAV:   1    -0.116132413153E+04   -0.48152E-03   -0.14623E-01  6208   0.438E-01    0.885E-02
RMM:   2    -0.116132443438E+04   -0.30285E-03   -0.36919E-03  6299   0.767E-02    0.665E-02
RMM:   3    -0.116132441977E+04    0.14612E-04   -0.15617E-04  3712   0.258E-02    0.431E-02
RMM:   4    -0.116132440843E+04    0.11336E-04   -0.64098E-05  3491   0.104E-02    0.255E-02
RMM:   5    -0.116132440753E+04    0.90133E-06   -0.18558E-05  3350   0.648E-03    0.119E-02
RMM:   6    -0.116132440875E+04   -0.12248E-05   -0.74374E-06  3084   0.420E-03    0.800E-03
RMM:   7    -0.116132440959E+04   -0.83185E-06   -0.35621E-06  2354   0.312E-03    0.537E-03
RMM:   8    -0.116132441064E+04   -0.10543E-05   -0.28660E-06  2079   0.264E-03
   4 F= -.11613244E+04 E0= -.11613244E+04  d E =-.758461E-03  mag=     8.0000
       N       E                     dE             d eps       ncg     rms          rms(c)
DAV:   1    -0.116132483410E+04   -0.42451E-03   -0.73405E-02  6128   0.308E-01    0.613E-02
RMM:   2    -0.116132498669E+04   -0.15259E-03   -0.18189E-03  6160   0.534E-02    0.409E-02
RMM:   3    -0.116132498010E+04    0.65931E-05   -0.79655E-05  3468   0.192E-02    0.262E-02
RMM:   4    -0.116132497571E+04    0.43848E-05   -0.35714E-05  3353   0.748E-03    0.131E-02
RMM:   5    -0.116132497657E+04   -0.86043E-06   -0.81153E-06  3030   0.442E-03    0.600E-03
RMM:   6    -0.116132497732E+04   -0.74373E-06   -0.37868E-06  2419   0.298E-03    0.466E-03
RMM:   7    -0.116132497781E+04   -0.49596E-06   -0.17405E-06  1687   0.257E-03    0.309E-03
RMM:   8    -0.116132497859E+04   -0.77125E-06   -0.14897E-06  1535   0.234E-03
   5 F= -.11613250E+04 E0= -.11613250E+04  d E =-.567945E-03  mag=     8.0000
       N       E                     dE             d eps       ncg     rms          rms(c)
DAV:   1    -0.116132537523E+04   -0.39742E-03   -0.14808E-01  6144   0.436E-01    0.786E-02
RMM:   2    -0.116132569661E+04   -0.32138E-03   -0.35372E-03  6355   0.737E-02    0.497E-02
RMM:   3    -0.116132568806E+04    0.85531E-05   -0.14545E-04  3655   0.244E-02    0.320E-02
RMM:   4    -0.116132568166E+04    0.63956E-05   -0.49249E-05  3467   0.935E-03    0.144E-02
RMM:   5    -0.116132568313E+04   -0.14697E-05   -0.13027E-05  3270   0.548E-03    0.531E-03
RMM:   6    -0.116132568402E+04   -0.88412E-06   -0.56377E-06  2829   0.368E-03    0.423E-03
RMM:   7    -0.116132568463E+04   -0.61304E-06   -0.29807E-06  2163   0.291E-03    0.293E-03
RMM:   8    -0.116132568547E+04   -0.83874E-06   -0.23248E-06  1956   0.260E-03
   6 F= -.11613257E+04 E0= -.11613257E+04  d E =-.706882E-03  mag=     8.0000
       N       E                     dE             d eps       ncg     rms          rms(c)
DAV:   1    -0.116132599356E+04   -0.30893E-03   -0.60777E-02  6112   0.279E-01    0.524E-02
RMM:   2    -0.116132612160E+04   -0.12804E-03   -0.14607E-03  6023   0.476E-02    0.359E-02
RMM:   3    -0.116132611816E+04    0.34339E-05   -0.65531E-05  3458   0.178E-02    0.232E-02
RMM:   4    -0.116132611581E+04    0.23519E-05   -0.26684E-05  3334   0.642E-03    0.142E-02
RMM:   5    -0.116132611590E+04   -0.89931E-07   -0.69681E-06  2975   0.399E-03    0.626E-03
RMM:   6    -0.116132611640E+04   -0.49987E-06   -0.30678E-06  2220   0.283E-03    0.398E-03
RMM:   7    -0.116132611672E+04   -0.31678E-06   -0.13888E-06  1551   0.235E-03    0.261E-03
RMM:   8    -0.116132611714E+04   -0.42532E-06   -0.97663E-07  1395   0.222E-03
   7 F= -.11613261E+04 E0= -.11613261E+04  d E =-.431673E-03  mag=     8.0000
       N       E                     dE             d eps       ncg     rms          rms(c)
DAV:   1    -0.116132636234E+04   -0.24562E-03   -0.28229E-01  6144   0.600E-01    0.106E-01
RMM:   2    -0.116132697600E+04   -0.61366E-03   -0.66547E-03  6385   0.101E-01    0.653E-02
RMM:   3    -0.116132696381E+04    0.12193E-04   -0.29345E-04  4077   0.335E-02    0.419E-02
RMM:   4    -0.116132695031E+04    0.13493E-04   -0.80695E-05  3519   0.124E-02    0.184E-02
RMM:   5    -0.116132695296E+04   -0.26477E-05   -0.23238E-05  3397   0.752E-03    0.949E-03
RMM:   6    -0.116132695429E+04   -0.13301E-05   -0.10213E-05  3236   0.494E-03    0.598E-03
RMM:   7    -0.116132695511E+04   -0.82310E-06   -0.57214E-06  2690   0.374E-03    0.452E-03
RMM:   8    -0.116132695578E+04   -0.66147E-06   -0.36229E-06  2266   0.303E-03
   8 F= -.11613270E+04 E0= -.11613270E+04  d E =-.838635E-03  mag=     8.0000
       N       E                     dE             d eps       ncg     rms          rms(c)
DAV:   1    -0.116132626201E+04    0.69311E-03   -0.97319E-01  6256   0.112E+00    0.195E-01
RMM:   2    -0.116132837687E+04   -0.21149E-02   -0.22752E-02  6375   0.186E-01    0.118E-01
RMM:   3    -0.116132835663E+04    0.20237E-04   -0.11338E-03  5688   0.644E-02    0.759E-02
RMM:   4    -0.116132831279E+04    0.43842E-04   -0.28051E-04  4138   0.211E-02    0.333E-02
RMM:   5    -0.116132831750E+04   -0.47188E-05   -0.61226E-05  3534   0.123E-02    0.122E-02
RMM:   6    -0.116132832107E+04   -0.35615E-05   -0.25491E-05  3447   0.756E-03    0.912E-03
RMM:   7    -0.116132832307E+04   -0.20079E-05   -0.15051E-05  3311   0.575E-03    0.681E-03
RMM:   8    -0.116132832471E+04   -0.16370E-05   -0.98929E-06  3070   0.470E-03
   9 F= -.11613283E+04 E0= -.11613283E+04  d E =-.136893E-02  mag=     8.0000
       N       E                     dE             d eps       ncg     rms          rms(c)
DAV:   1    -0.116132824854E+04    0.74530E-04   -0.41374E-01  6176   0.729E-01    0.129E-01
RMM:   2    -0.116132915425E+04   -0.90570E-03   -0.98004E-03  6388   0.122E-01    0.798E-02
RMM:   3    -0.116132913736E+04    0.16886E-04   -0.44611E-04  4428   0.399E-02    0.513E-02
RMM:   4    -0.116132911820E+04    0.19159E-04   -0.11388E-04  3594   0.144E-02    0.262E-02
RMM:   5    -0.116132912053E+04   -0.23271E-05   -0.34628E-05  3464   0.908E-03    0.142E-02
RMM:   6    -0.116132912270E+04   -0.21698E-05   -0.15682E-05  3369   0.604E-03    0.827E-03
RMM:   7    -0.116132912409E+04   -0.13876E-05   -0.93760E-06  3092   0.473E-03    0.678E-03
RMM:   8    -0.116132912513E+04   -0.10442E-05   -0.61344E-06  2654   0.372E-03
  10 F= -.11613291E+04 E0= -.11613291E+04  d E =-.800421E-03  mag=     8.0000
