       N       E                     dE             d eps       ncg     rms          rms(c)
DAV:   1    -0.115897514705E+04   -0.11590E+04   -0.12091E-05  8728   0.125E-02    0.226E-02
RMM:   2    -0.115897514793E+04   -0.87784E-06   -0.14730E-05  5610   0.562E-03    0.383E-02
RMM:   3    -0.115897514869E+04   -0.75408E-06   -0.26173E-06  4224   0.267E-03    0.815E-03
RMM:   4    -0.115897514991E+04   -0.12217E-05   -0.54532E-07  2500   0.183E-03    0.708E-03
RMM:   5    -0.115897515085E+04   -0.94261E-06   -0.48062E-07  2240   0.183E-03    0.612E-03
RMM:   6    -0.115897515160E+04   -0.74891E-06   -0.27317E-07  1772   0.174E-03    0.601E-03
RMM:   7    -0.115897515586E+04   -0.42574E-05   -0.37689E-06  4132   0.271E-03    0.554E-03
RMM:   8    -0.115897516069E+04   -0.48299E-05   -0.71761E-06  4811   0.327E-03
   1 F= -.11589752E+04 E0= -.11589752E+04  d E =-.115898E+04  mag=    12.0000
       N       E                     dE             d eps       ncg     rms          rms(c)
DAV:   1    -0.115897554535E+04   -0.38950E-03   -0.20739E-01 12640   0.520E-01    0.116E-01
RMM:   2    -0.115897605094E+04   -0.50559E-03   -0.58405E-03 12140   0.967E-02    0.871E-02
RMM:   3    -0.115897605034E+04    0.59916E-06   -0.21176E-04  8050   0.255E-02    0.591E-02
RMM:   4    -0.115897606154E+04   -0.11198E-04   -0.98290E-05  7395   0.132E-02    0.354E-02
RMM:   5    -0.115897608188E+04   -0.20340E-04   -0.35233E-05  6956   0.836E-03    0.373E-02
RMM:   6    -0.115897609368E+04   -0.11802E-04   -0.13647E-05  6569   0.510E-03    0.188E-02
RMM:   7    -0.115897610823E+04   -0.14548E-04   -0.87535E-06  6043   0.410E-03    0.176E-02
RMM:   8    -0.115897613445E+04   -0.26213E-04   -0.18958E-05  6530   0.525E-03
   2 F= -.11589761E+04 E0= -.11589761E+04  d E =-.973759E-03  mag=    12.0000
       N       E                     dE             d eps       ncg     rms          rms(c)
DAV:   1    -0.115897606965E+04    0.38583E-04   -0.14756E-01 12496   0.438E-01    0.982E-02
RMM:   2    -0.115897644416E+04   -0.37451E-03   -0.41715E-03 12122   0.823E-02    0.751E-02
RMM:   3    -0.115897645230E+04   -0.81354E-05   -0.15241E-04  7668   0.225E-02    0.519E-02
RMM:   4    -0.115897647797E+04   -0.25669E-04   -0.81039E-05  7361   0.118E-02    0.357E-02
RMM:   5    -0.115897649909E+04   -0.21121E-04   -0.28876E-05  6901   0.761E-03    0.370E-02
RMM:   6    -0.115897651585E+04   -0.16766E-04   -0.13917E-05  6617   0.483E-03    0.193E-02
RMM:   7    -0.115897653326E+04   -0.17405E-04   -0.87998E-06  5972   0.407E-03    0.184E-02
RMM:   8    -0.115897657031E+04   -0.37048E-04   -0.30706E-05  6764   0.645E-03
   3 F= -.11589766E+04 E0= -.11589766E+04  d E =-.140962E-02  mag=    12.0000
       N       E                     dE             d eps       ncg     rms          rms(c)
DAV:   1    -0.115897698478E+04   -0.45152E-03   -0.61094E-02 12288   0.283E-01    0.576E-02
RMM:   2    -0.115897714347E+04   -0.15869E-03   -0.16240E-03 12047   0.511E-02    0.416E-02
RMM:   3    -0.115897714986E+04   -0.63953E-05   -0.61099E-05  7048   0.150E-02    0.294E-02
RMM:   4    -0.115897716238E+04   -0.12520E-04   -0.27394E-05  6773   0.691E-03    0.202E-02
RMM:   5    -0.115897717418E+04   -0.11796E-04   -0.11490E-05  6026   0.479E-03    0.197E-02
RMM:   6    -0.115897717951E+04   -0.53304E-05   -0.43807E-06  4882   0.301E-03    0.118E-02
RMM:   7    -0.115897718719E+04   -0.76861E-05   -0.44200E-06  5144   0.306E-03    0.107E-02
RMM:   8    -0.115897720461E+04   -0.17418E-04   -0.17796E-05  6132   0.501E-03
   4 F= -.11589772E+04 E0= -.11589772E+04  d E =-.634305E-03  mag=    12.0000
       N       E                     dE             d eps       ncg     rms          rms(c)
DAV:   1    -0.115897708864E+04    0.98551E-04   -0.54800E-01 12608   0.848E-01    0.168E-01
RMM:   2    -0.115897842242E+04   -0.13338E-02   -0.14343E-02 12248   0.150E-01    0.119E-01
RMM:   3    -0.115897843652E+04   -0.14095E-04   -0.61206E-04 10628   0.414E-02    0.813E-02
RMM:   4    -0.115897845082E+04   -0.14303E-04   -0.18257E-04  7870   0.167E-02    0.460E-02
RMM:   5    -0.115897849350E+04   -0.42672E-04   -0.61368E-05  7280   0.108E-02    0.346E-02
RMM:   6    -0.115897850935E+04   -0.15856E-04   -0.19899E-05  6922   0.650E-03    0.233E-02
RMM:   7    -0.115897853685E+04   -0.27503E-04   -0.17388E-05  6797   0.553E-03    0.201E-02
RMM:   8    -0.115897857524E+04   -0.38385E-04   -0.26632E-05  6889   0.636E-03
   5 F= -.11589786E+04 E0= -.11589786E+04  d E =-.200493E-02  mag=    12.0000
       N       E                     dE             d eps       ncg     rms          rms(c)
DAV:   1    -0.115897338486E+04    0.51520E-02   -0.21915E+00 12704   0.170E+00    0.336E-01
RMM:   2    -0.115897869759E+04   -0.53127E-02   -0.57313E-02 12292   0.300E-01    0.239E-01
RMM:   3    -0.115897875724E+04   -0.59650E-04   -0.25978E-03 12879   0.807E-02    0.163E-01
RMM:   4    -0.115897879458E+04   -0.37339E-04   -0.79769E-04 11346   0.315E-02    0.928E-02
RMM:   5    -0.115897892829E+04   -0.13372E-03   -0.20116E-04  8519   0.198E-02    0.601E-02
RMM:   6    -0.115897899664E+04   -0.68351E-04   -0.59603E-05  7314   0.109E-02    0.426E-02
RMM:   7    -0.115897909247E+04   -0.95829E-04   -0.50934E-05  7264   0.944E-03    0.355E-02
RMM:   8    -0.115897924654E+04   -0.15407E-03   -0.12217E-04  7690   0.128E-02    0.290E-02
RMM:   9    -0.115897931887E+04   -0.72335E-04   -0.74474E-05  7345   0.990E-03
   6 F= -.11589793E+04 E0= -.11589793E+04  d E =-.274857E-02  mag=    12.0000
       N       E                     dE             d eps       ncg     rms          rms(c)
DAV:   1    -0.115897852619E+04    0.72035E-03   -0.38890E-01 12672   0.715E-01    0.143E-01
RMM:   2    -0.115897944083E+04   -0.91464E-03   -0.10169E-02 12204   0.127E-01    0.996E-02
RMM:   3    -0.115897943447E+04    0.63542E-05   -0.41103E-04  9383   0.361E-02    0.664E-02
RMM:   4    -0.115897941064E+04    0.23838E-04   -0.11399E-04  7282   0.140E-02    0.368E-02
RMM:   5    -0.115897941413E+04   -0.34895E-05   -0.36074E-05  6774   0.888E-03    0.324E-02
RMM:   6    -0.115897941724E+04   -0.31101E-05   -0.12117E-05  6311   0.525E-03    0.101E-02
RMM:   7    -0.115897941955E+04   -0.23118E-05   -0.52609E-06  5392   0.351E-03    0.984E-03
RMM:   8    -0.115897942215E+04   -0.26057E-05   -0.38775E-06  5132   0.298E-03
   7 F= -.11589794E+04 E0= -.11589794E+04  d E =-.285185E-02  mag=    12.0000
       N       E                     dE             d eps       ncg     rms          rms(c)
DAV:   1    -0.115897935551E+04    0.64040E-04   -0.55807E-02 12400   0.271E-01    0.534E-02
RMM:   2    -0.115897948510E+04   -0.12959E-03   -0.14386E-03 11980   0.481E-02    0.373E-02
RMM:   3    -0.115897948320E+04    0.18980E-05   -0.48733E-05  6728   0.136E-02    0.247E-02
RMM:   4    -0.115897948049E+04    0.27105E-05   -0.18990E-05  6481   0.581E-03    0.124E-02
RMM:   5    -0.115897948136E+04   -0.87243E-06   -0.51216E-06  5407   0.346E-03    0.580E-03
RMM:   6    -0.115897948182E+04   -0.45895E-06   -0.10243E-06  3268   0.211E-03    0.372E-03
RMM:   7    -0.115897948230E+04   -0.47752E-06   -0.45228E-07  2474   0.197E-03    0.284E-03
RMM:   8    -0.115897948307E+04   -0.77124E-06   -0.99492E-07  3022   0.216E-03
   8 F= -.11589795E+04 E0= -.11589795E+04  d E =-.291277E-02  mag=    12.0000
       N       E                     dE             d eps       ncg     rms          rms(c)
DAV:   1    -0.115897963404E+04   -0.15174E-03   -0.15608E-01 12504   0.455E-01    0.827E-02
RMM:   2    -0.115897999876E+04   -0.36472E-03   -0.39342E-03 12124   0.776E-02    0.567E-02
RMM:   3    -0.115897999657E+04    0.21923E-05   -0.14393E-04  7395   0.222E-02    0.383E-02
RMM:   4    -0.115897999799E+04   -0.14183E-05   -0.55408E-05  6996   0.975E-03    0.206E-02
RMM:   5    -0.115898000435E+04   -0.63623E-05   -0.17015E-05  6670   0.603E-03    0.157E-02
RMM:   6    -0.115898000740E+04   -0.30520E-05   -0.69590E-06  5975   0.369E-03    0.926E-03
RMM:   7    -0.115898001125E+04   -0.38445E-05   -0.42854E-06  5413   0.328E-03    0.811E-03
RMM:   8    -0.115898001722E+04   -0.59725E-05   -0.61114E-06  5388   0.320E-03
   9 F= -.11589800E+04 E0= -.11589800E+04  d E =-.534148E-03  mag=    12.0000
       N       E                     dE             d eps       ncg     rms          rms(c)
DAV:   1    -0.115897776361E+04    0.22476E-02   -0.13158E+00 12768   0.132E+00    0.240E-01
RMM:   2    -0.115898081949E+04   -0.30559E-02   -0.33067E-02 12284   0.225E-01    0.164E-01
RMM:   3    -0.115898082617E+04   -0.66807E-05   -0.15055E-03 12350   0.647E-02    0.111E-01
RMM:   4    -0.115898081562E+04    0.10545E-04   -0.45943E-04 10329   0.235E-02    0.578E-02
RMM:   5    -0.115898085266E+04   -0.37042E-04   -0.89350E-05  7394   0.144E-02    0.340E-02
RMM:   6    -0.115898087552E+04   -0.22859E-04   -0.34262E-05  7050   0.815E-03    0.242E-02
RMM:   7    -0.115898090540E+04   -0.29877E-04   -0.24461E-05  6958   0.706E-03    0.197E-02
RMM:   8    -0.115898094642E+04   -0.41021E-04   -0.36970E-05  7019   0.750E-03
  10 F= -.11589809E+04 E0= -.11589809E+04  d E =-.146335E-02  mag=    12.0000
       N       E                     dE             d eps       ncg     rms          rms(c)
DAV:   1    -0.115898154662E+04   -0.64122E-03   -0.59292E-02 12624   0.281E-01    0.637E-02
RMM:   2    -0.115898167963E+04   -0.13301E-03   -0.16366E-03 12058   0.509E-02    0.527E-02
RMM:   3    -0.115898167532E+04    0.43182E-05   -0.63255E-05  7067   0.152E-02    0.344E-02
RMM:   4    -0.115898167388E+04    0.14342E-05   -0.32148E-05  6912   0.707E-03    0.189E-02
RMM:   5    -0.115898167666E+04   -0.27804E-05   -0.12049E-05  6397   0.495E-03    0.139E-02
RMM:   6    -0.115898167829E+04   -0.16324E-05   -0.46772E-06  5381   0.319E-03    0.817E-03
RMM:   7    -0.115898168002E+04   -0.17298E-05   -0.27845E-06  4880   0.283E-03    0.612E-03
RMM:   8    -0.115898168275E+04   -0.27263E-05   -0.30559E-06  4922   0.266E-03
  11 F= -.11589817E+04 E0= -.11589817E+04  d E =-.736330E-03  mag=    12.0000
       N       E                     dE             d eps       ncg     rms          rms(c)
DAV:   1    -0.115898171059E+04   -0.30567E-04   -0.42148E-01 12720   0.749E-01    0.164E-01
RMM:   2    -0.115898261543E+04   -0.90484E-03   -0.11443E-02 12236   0.133E-01    0.134E-01
RMM:   3    -0.115898257528E+04    0.40146E-04   -0.48505E-04 10202   0.376E-02    0.881E-02
RMM:   4    -0.115898252699E+04    0.48297E-04   -0.18452E-04  7714   0.160E-02    0.568E-02
RMM:   5    -0.115898251722E+04    0.97709E-05   -0.48816E-05  7089   0.102E-02    0.407E-02
RMM:   6    -0.115898251918E+04   -0.19645E-05   -0.20686E-05  6897   0.645E-03    0.137E-02
RMM:   7    -0.115898252071E+04   -0.15288E-05   -0.98086E-06  6460   0.469E-03    0.128E-02
RMM:   8    -0.115898252177E+04   -0.10562E-05   -0.61845E-06  6028   0.364E-03
  12 F= -.11589825E+04 E0= -.11589825E+04  d E =-.157535E-02  mag=    12.0000
       N       E                     dE             d eps       ncg     rms          rms(c)
DAV:   1    -0.115898294824E+04   -0.42753E-03   -0.11349E-01 12440   0.388E-01    0.761E-02
RMM:   2    -0.115898319770E+04   -0.24945E-03   -0.29370E-03 12123   0.670E-02    0.569E-02
RMM:   3    -0.115898318752E+04    0.10175E-04   -0.10477E-04  7182   0.191E-02    0.370E-02
RMM:   4    -0.115898317982E+04    0.77002E-05   -0.46900E-05  6944   0.859E-03    0.246E-02
RMM:   5    -0.115898317945E+04    0.36923E-06   -0.13957E-05  6553   0.577E-03    0.165E-02
RMM:   6    -0.115898318038E+04   -0.92854E-06   -0.69086E-06  5665   0.340E-03    0.568E-03
RMM:   7    -0.115898318093E+04   -0.54871E-06   -0.32338E-06  4683   0.323E-03    0.575E-03
RMM:   8    -0.115898318144E+04   -0.51079E-06   -0.21306E-06  3724   0.231E-03
  13 F= -.11589832E+04 E0= -.11589832E+04  d E =-.659676E-03  mag=    12.0000
       N       E                     dE             d eps       ncg     rms          rms(c)
DAV:   1    -0.115898233549E+04    0.84544E-03   -0.77710E-01 12800   0.102E+00    0.199E-01
RMM:   2    -0.115898401877E+04   -0.16833E-02   -0.19870E-02 12272   0.174E-01    0.149E-01
RMM:   3    -0.115898396951E+04    0.49267E-04   -0.88144E-04 11552   0.496E-02    0.964E-02
RMM:   4    -0.115898390567E+04    0.63835E-04   -0.30063E-04  8975   0.186E-02    0.561E-02
RMM:   5    -0.115898389328E+04    0.12389E-04   -0.62071E-05  7228   0.116E-02    0.337E-02
RMM:   6    -0.115898389702E+04   -0.37376E-05   -0.23070E-05  6939   0.698E-03    0.131E-02
RMM:   7    -0.115898389914E+04   -0.21210E-05   -0.11788E-05  6698   0.526E-03    0.119E-02
RMM:   8    -0.115898390085E+04   -0.17131E-05   -0.80414E-06  6472   0.402E-03
  14 F= -.11589839E+04 E0= -.11589839E+04  d E =-.137909E-02  mag=    12.0000
       N       E                     dE             d eps       ncg     rms          rms(c)
DAV:   1    -0.115898398602E+04   -0.86879E-04   -0.27467E-01 12496   0.604E-01    0.108E-01
RMM:   2    -0.115898460502E+04   -0.61900E-03   -0.68905E-03 12221   0.102E-01    0.767E-02
RMM:   3    -0.115898458660E+04    0.18420E-04   -0.28388E-04  8515   0.301E-02    0.507E-02
RMM:   4    -0.115898457441E+04    0.12194E-04   -0.90154E-05  7185   0.118E-02    0.351E-02
RMM:   5    -0.115898457528E+04   -0.86641E-06   -0.30893E-05  6931   0.819E-03    0.299E-02
RMM:   6    -0.115898457861E+04   -0.33300E-05   -0.16723E-05  6743   0.545E-03    0.102E-02
RMM:   7    -0.115898458044E+04   -0.18370E-05   -0.79838E-06  6118   0.433E-03    0.923E-03
RMM:   8    -0.115898458181E+04   -0.13651E-05   -0.50926E-06  5233   0.308E-03
  15 F= -.11589846E+04 E0= -.11589846E+04  d E =-.680954E-03  mag=    12.0000
       N       E                     dE             d eps       ncg     rms          rms(c)
DAV:   1    -0.115898354843E+04    0.10320E-02   -0.71205E-01 12800   0.972E-01    0.173E-01
RMM:   2    -0.115898514552E+04   -0.15971E-02   -0.17782E-02 12284   0.163E-01    0.123E-01
RMM:   3    -0.115898510688E+04    0.38635E-04   -0.80686E-04 11227   0.480E-02    0.809E-02
RMM:   4    -0.115898507204E+04    0.34839E-04   -0.22258E-04  8083   0.169E-02    0.563E-02
RMM:   5    -0.115898507054E+04    0.15031E-05   -0.58808E-05  7112   0.108E-02    0.392E-02
RMM:   6    -0.115898507805E+04   -0.75051E-05   -0.28620E-05  6920   0.757E-03    0.161E-02
RMM:   7    -0.115898508217E+04   -0.41244E-05   -0.13973E-05  6752   0.553E-03    0.133E-02
RMM:   8    -0.115898508519E+04   -0.30175E-05   -0.86815E-06  6424   0.421E-03
  16 F= -.11589851E+04 E0= -.11589851E+04  d E =-.118433E-02  mag=    12.0000
       N       E                     dE             d eps       ncg     rms          rms(c)
DAV:   1    -0.115898505595E+04    0.26220E-04   -0.37347E-01 12608   0.701E-01    0.126E-01
RMM:   2    -0.115898594823E+04   -0.89228E-03   -0.96425E-03 12217   0.121E-01    0.944E-02
RMM:   3    -0.115898593023E+04    0.17996E-04   -0.39774E-04  9310   0.338E-02    0.630E-02
RMM:   4    -0.115898591896E+04    0.11273E-04   -0.11283E-04  7344   0.131E-02    0.407E-02
RMM:   5    -0.115898592626E+04   -0.73017E-05   -0.44556E-05  7026   0.911E-03    0.326E-02
RMM:   6    -0.115898593302E+04   -0.67595E-05   -0.18751E-05  6805   0.626E-03    0.145E-02
RMM:   7    -0.115898593748E+04   -0.44537E-05   -0.10083E-05  6395   0.450E-03    0.122E-02
RMM:   8    -0.115898594158E+04   -0.41080E-05   -0.66082E-06  5966   0.375E-03
  17 F= -.11589859E+04 E0= -.11589859E+04  d E =-.856397E-03  mag=    12.0000
       N       E                     dE             d eps       ncg     rms          rms(c)
DAV:   1    -0.115898471755E+04    0.12199E-02   -0.75547E-01 12704   0.997E-01    0.178E-01
RMM:   2    -0.115898650905E+04   -0.17915E-02   -0.19406E-02 12270   0.172E-01    0.134E-01
RMM:   3    -0.115898647810E+04    0.30944E-04   -0.87024E-04 11517   0.483E-02    0.889E-02
RMM:   4    -0.115898644853E+04    0.29567E-04   -0.21415E-04  8056   0.172E-02    0.625E-02
RMM:   5    -0.115898645458E+04   -0.60481E-05   -0.69077E-05  7215   0.113E-02    0.413E-02
RMM:   6    -0.115898646767E+04   -0.13092E-04   -0.30705E-05  6969   0.791E-03    0.190E-02
RMM:   7    -0.115898647496E+04   -0.72808E-05   -0.15072E-05  6790   0.559E-03    0.158E-02
RMM:   8    -0.115898648111E+04   -0.61544E-05   -0.95903E-06  6606   0.448E-03
  18 F= -.11589865E+04 E0= -.11589865E+04  d E =-.139592E-02  mag=    12.0000
       N       E                     dE             d eps       ncg     rms          rms(c)
DAV:   1    -0.115898611126E+04    0.36370E-03   -0.55048E-01 12784   0.852E-01    0.150E-01
RMM:   2    -0.115898742027E+04   -0.13090E-02   -0.14034E-02 12220   0.146E-01    0.104E-01
RMM:   3    -0.115898740728E+04    0.12986E-04   -0.59452E-04 10283   0.407E-02    0.709E-02
RMM:   4    -0.115898739498E+04    0.12303E-04   -0.16905E-04  7610   0.154E-02    0.387E-02
RMM:   5    -0.115898741016E+04   -0.15187E-04   -0.51171E-05  7077   0.990E-03    0.323E-02
RMM:   6    -0.115898741776E+04   -0.75944E-05   -0.20163E-05  6851   0.659E-03    0.172E-02
RMM:   7    -0.115898742506E+04   -0.72977E-05   -0.12257E-05  6638   0.490E-03    0.137E-02
RMM:   8    -0.115898743211E+04   -0.70512E-05   -0.90568E-06  6528   0.433E-03
  19 F= -.11589874E+04 E0= -.11589874E+04  d E =-.950997E-03  mag=    12.0000
       N       E                     dE             d eps       ncg     rms          rms(c)
DAV:   1    -0.115898485299E+04    0.25721E-02   -0.13648E+00 12784   0.134E+00    0.235E-01
RMM:   2    -0.115898806759E+04   -0.32146E-02   -0.34606E-02 12292   0.229E-01    0.162E-01
RMM:   3    -0.115898803786E+04    0.29733E-04   -0.15495E-03 12392   0.645E-02    0.110E-01
RMM:   4    -0.115898799733E+04    0.40529E-04   -0.46977E-04 10531   0.234E-02    0.656E-02
RMM:   5    -0.115898801224E+04   -0.14914E-04   -0.89445E-05  7384   0.140E-02    0.405E-02
RMM:   6    -0.115898803123E+04   -0.18990E-04   -0.39573E-05  7042   0.870E-03    0.207E-02
RMM:   7    -0.115898804419E+04   -0.12957E-04   -0.19658E-05  6879   0.650E-03    0.165E-02
RMM:   8    -0.115898805692E+04   -0.12735E-04   -0.15358E-05  6798   0.518E-03
  20 F= -.11589881E+04 E0= -.11589881E+04  d E =-.157581E-02  mag=    12.0000
       N       E                     dE             d eps       ncg     rms          rms(c)
DAV:   1    -0.115898764530E+04    0.39889E-03   -0.52828E-01 12904   0.836E-01    0.145E-01
RMM:   2    -0.115898887874E+04   -0.12334E-02   -0.13233E-02 12247   0.141E-01    0.973E-02
RMM:   3    -0.115898887248E+04    0.62591E-05   -0.59272E-04 10272   0.422E-02    0.661E-02
RMM:   4    -0.115898886601E+04    0.64655E-05   -0.17654E-04  7660   0.156E-02    0.471E-02
RMM:   5    -0.115898887600E+04   -0.99900E-05   -0.42994E-05  7030   0.948E-03    0.326E-02
RMM:   6    -0.115898888673E+04   -0.10722E-04   -0.23268E-05  6869   0.674E-03    0.150E-02
RMM:   7    -0.115898889504E+04   -0.83172E-05   -0.12819E-05  6653   0.515E-03    0.142E-02
RMM:   8    -0.115898890231E+04   -0.72624E-05   -0.10334E-05  6573   0.434E-03
  21 F= -.11589889E+04 E0= -.11589889E+04  d E =-.845383E-03  mag=    11.9999
       N       E                     dE             d eps       ncg     rms          rms(c)
DAV:   1    -0.115898477534E+04    0.41197E-02   -0.21255E+00 12776   0.168E+00    0.291E-01
RMM:   2    -0.115898967736E+04   -0.49020E-02   -0.53002E-02 12292   0.282E-01    0.194E-01
RMM:   3    -0.115898963349E+04    0.43873E-04   -0.23847E-03 12367   0.819E-02    0.130E-01
RMM:   4    -0.115898957284E+04    0.60645E-04   -0.74645E-04 11906   0.292E-02    0.781E-02
RMM:   5    -0.115898958736E+04   -0.14522E-04   -0.12623E-04  7586   0.164E-02    0.518E-02
RMM:   6    -0.115898961222E+04   -0.24857E-04   -0.56733E-05  7120   0.101E-02    0.236E-02
RMM:   7    -0.115898963199E+04   -0.19771E-04   -0.29984E-05  6995   0.797E-03    0.197E-02
RMM:   8    -0.115898965091E+04   -0.18923E-04   -0.25306E-05  6902   0.667E-03
  22 F= -.11589897E+04 E0= -.11589896E+04  d E =-.159399E-02  mag=    11.9999
       N       E                     dE             d eps       ncg     rms          rms(c)
DAV:   1    -0.115898833931E+04    0.12927E-02   -0.10354E+00 12768   0.117E+00    0.205E-01
RMM:   2    -0.115899072685E+04   -0.23875E-02   -0.25550E-02 12275   0.195E-01    0.138E-01
RMM:   3    -0.115899072162E+04    0.52288E-05   -0.12059E-03 11712   0.602E-02    0.912E-02
RMM:   4    -0.115899069877E+04    0.22851E-04   -0.34737E-04  9156   0.200E-02    0.501E-02
RMM:   5    -0.115899071711E+04   -0.18345E-04   -0.86951E-05  7263   0.131E-02    0.209E-02
RMM:   6    -0.115899073001E+04   -0.12897E-04   -0.31162E-05  6983   0.805E-03    0.171E-02
RMM:   7    -0.115899074047E+04   -0.10463E-04   -0.19223E-05  6848   0.613E-03    0.130E-02
RMM:   8    -0.115899075429E+04   -0.13817E-04   -0.18394E-05  6841   0.590E-03
  23 F= -.11589908E+04 E0= -.11589908E+04  d E =-.110337E-02  mag=    11.9999
       N       E                     dE             d eps       ncg     rms          rms(c)
DAV:   1    -0.115898747558E+04    0.32649E-02   -0.16915E+00 12768   0.149E+00    0.261E-01
RMM:   2    -0.115899135044E+04   -0.38749E-02   -0.41621E-02 12287   0.248E-01    0.176E-01
RMM:   3    -0.115899132634E+04    0.24096E-04   -0.19118E-03 12128   0.747E-02    0.115E-01
RMM:   4    -0.115899127621E+04    0.50135E-04   -0.60034E-04 11307   0.253E-02    0.604E-02
RMM:   5    -0.115899129055E+04   -0.14345E-04   -0.11714E-04  7490   0.157E-02    0.365E-02
RMM:   6    -0.115899130517E+04   -0.14615E-04   -0.42742E-05  7043   0.942E-03    0.213E-02
RMM:   7    -0.115899131883E+04   -0.13666E-04   -0.26400E-05  6951   0.726E-03    0.161E-02
RMM:   8    -0.115899133356E+04   -0.14728E-04   -0.21463E-05  6854   0.640E-03
  24 F= -.11589913E+04 E0= -.11589913E+04  d E =-.168265E-02  mag=    12.0000
       N       E                     dE             d eps       ncg     rms          rms(c)
DAV:   1    -0.115898911308E+04    0.22058E-02   -0.15032E+00 12752   0.141E+00    0.250E-01
RMM:   2    -0.115899257434E+04   -0.34613E-02   -0.37269E-02 12290   0.235E-01    0.171E-01
RMM:   3    -0.115899255204E+04    0.22295E-04   -0.17579E-03 12089   0.724E-02    0.111E-01
RMM:   4    -0.115899250614E+04    0.45898E-04   -0.54458E-04 11012   0.243E-02    0.654E-02
RMM:   5    -0.115899251496E+04   -0.88204E-05   -0.10926E-04  7459   0.152E-02    0.404E-02
RMM:   6    -0.115899253129E+04   -0.16331E-04   -0.45150E-05  7045   0.938E-03    0.204E-02
RMM:   7    -0.115899254408E+04   -0.12790E-04   -0.25008E-05  6954   0.724E-03    0.162E-02
RMM:   8    -0.115899255546E+04   -0.11377E-04   -0.18061E-05  6830   0.573E-03
  25 F= -.11589926E+04 E0= -.11589926E+04  d E =-.122190E-02  mag=    11.9999
       N       E                     dE             d eps       ncg     rms          rms(c)
DAV:   1    -0.115899174606E+04    0.79802E-03   -0.44466E-01 13072   0.767E-01    0.136E-01
RMM:   2    -0.115899278174E+04   -0.10357E-02   -0.11097E-02 12238   0.128E-01    0.935E-02
RMM:   3    -0.115899277542E+04    0.63230E-05   -0.51112E-04  9834   0.400E-02    0.610E-02
RMM:   4    -0.115899276474E+04    0.10677E-04   -0.14329E-04  7397   0.140E-02    0.363E-02
RMM:   5    -0.115899277368E+04   -0.89457E-05   -0.45168E-05  7018   0.924E-03    0.310E-02
RMM:   6    -0.115899277964E+04   -0.59527E-05   -0.19869E-05  6857   0.650E-03    0.135E-02
RMM:   7    -0.115899278519E+04   -0.55563E-05   -0.12152E-05  6641   0.481E-03    0.119E-02
RMM:   8    -0.115899278966E+04   -0.44622E-05   -0.82388E-06  6395   0.417E-03
  26 F= -.11589928E+04 E0= -.11589928E+04  d E =-.145610E-02  mag=    11.9999
       N       E                     dE             d eps       ncg     rms          rms(c)
DAV:   1    -0.115899095132E+04    0.18339E-02   -0.12825E+00 12736   0.130E+00    0.233E-01
RMM:   2    -0.115899390888E+04   -0.29576E-02   -0.32129E-02 12280   0.218E-01    0.161E-01
RMM:   3    -0.115899388122E+04    0.27662E-04   -0.14745E-03 12034   0.657E-02    0.105E-01
RMM:   4    -0.115899383574E+04    0.45482E-04   -0.42930E-04 10027   0.223E-02    0.647E-02
RMM:   5    -0.115899383893E+04   -0.31941E-05   -0.10238E-04  7427   0.145E-02    0.551E-02
RMM:   6    -0.115899385292E+04   -0.13989E-04   -0.42385E-05  7042   0.954E-03    0.217E-02
RMM:   7    -0.115899386442E+04   -0.11502E-04   -0.22101E-05  6916   0.689E-03    0.176E-02
RMM:   8    -0.115899387331E+04   -0.88881E-05   -0.15332E-05  6806   0.573E-03
  27 F= -.11589939E+04 E0= -.11589939E+04  d E =-.108366E-02  mag=    12.0000
       N       E                     dE             d eps       ncg     rms          rms(c)
DAV:   1    -0.115899366398E+04    0.20044E-03   -0.13052E-01 13072   0.416E-01    0.740E-02
RMM:   2    -0.115899397587E+04   -0.31189E-03   -0.33365E-03 12172   0.709E-02    0.513E-02
RMM:   3    -0.115899397274E+04    0.31370E-05   -0.13314E-04  7335   0.216E-02    0.343E-02
RMM:   4    -0.115899397370E+04   -0.96194E-06   -0.50651E-05  7043   0.897E-03    0.260E-02
RMM:   5    -0.115899397663E+04   -0.29276E-05   -0.17350E-05  6760   0.643E-03    0.254E-02
RMM:   6    -0.115899398069E+04   -0.40687E-05   -0.12255E-05  6588   0.428E-03    0.806E-03
RMM:   7    -0.115899398314E+04   -0.24485E-05   -0.48357E-06  5458   0.366E-03    0.823E-03
RMM:   8    -0.115899398605E+04   -0.29063E-05   -0.48272E-06  5083   0.297E-03
  28 F= -.11589940E+04 E0= -.11589940E+04  d E =-.119639E-02  mag=    12.0000
       N       E                     dE             d eps       ncg     rms          rms(c)
DAV:   1    -0.115899286238E+04    0.11208E-02   -0.87972E-01 12808   0.108E+00    0.197E-01
RMM:   2    -0.115899489552E+04   -0.20331E-02   -0.22319E-02 12296   0.184E-01    0.140E-01
RMM:   3    -0.115899487654E+04    0.18981E-04   -0.10172E-03 11648   0.553E-02    0.910E-02
RMM:   4    -0.115899484343E+04    0.33109E-04   -0.31176E-04  8919   0.193E-02    0.539E-02
RMM:   5    -0.115899484971E+04   -0.62812E-05   -0.70374E-05  7265   0.121E-02    0.306E-02
RMM:   6    -0.115899485962E+04   -0.99175E-05   -0.26583E-05  6954   0.749E-03    0.170E-02
RMM:   7    -0.115899486784E+04   -0.82188E-05   -0.14931E-05  6798   0.561E-03    0.143E-02
RMM:   8    -0.115899487682E+04   -0.89796E-05   -0.12137E-05  6781   0.499E-03
  29 F= -.11589949E+04 E0= -.11589949E+04  d E =-.890773E-03  mag=    12.0000
