       N       E                     dE             d eps       ncg     rms          rms(c)
DAV:   1     0.119027383776E+05    0.11903E+05   -0.42101E+05 12352   0.131E+03
DAV:   2     0.646347178662E+03   -0.11256E+05   -0.10049E+05 12320   0.375E+02
DAV:   3    -0.136224748446E+04   -0.20086E+04   -0.19359E+04 13216   0.165E+02
DAV:   4    -0.149559748437E+04   -0.13335E+03   -0.13103E+03 16208   0.444E+01
DAV:   5    -0.150414176481E+04   -0.85443E+01   -0.85029E+01 22176   0.102E+01    0.182E+02
RMM:   6    -0.116453295488E+04    0.33961E+03   -0.16028E+03 12513   0.348E+01    0.111E+02
RMM:   7    -0.114959819630E+04    0.14935E+02   -0.65913E+01 12849   0.110E+01    0.703E+01
RMM:   8    -0.115336319203E+04   -0.37650E+01   -0.24108E+01 13175   0.570E+00    0.432E+01
RMM:   9    -0.115791594457E+04   -0.45528E+01   -0.93366E+00 12925   0.332E+00    0.251E+01
RMM:  10    -0.115652714924E+04    0.13888E+01   -0.69587E+00 14029   0.280E+00    0.162E+01
RMM:  11    -0.115811561649E+04   -0.15885E+01   -0.16422E+00 13124   0.125E+00    0.104E+01
RMM:  12    -0.115829924721E+04   -0.18363E+00   -0.82922E-01 13584   0.830E-01    0.723E+00
RMM:  13    -0.115916138568E+04   -0.86214E+00   -0.96536E-01 12970   0.913E-01    0.599E+00
RMM:  14    -0.115973184975E+04   -0.57046E+00   -0.39912E-01 13746   0.673E-01    0.543E+00
RMM:  15    -0.115995620739E+04   -0.22436E+00   -0.93523E-02 14779   0.321E-01    0.508E+00
RMM:  16    -0.116018194868E+04   -0.22574E+00   -0.19567E-01 12928   0.515E-01    0.379E+00
RMM:  17    -0.116027779707E+04   -0.95848E-01   -0.19436E-01 12989   0.535E-01    0.250E+00
RMM:  18    -0.116028877606E+04   -0.10979E-01   -0.20363E-01 13182   0.539E-01    0.141E+00
RMM:  19    -0.116029901902E+04   -0.10243E-01   -0.81440E-02 14145   0.281E-01    0.734E-01
RMM:  20    -0.116031142427E+04   -0.12405E-01   -0.27263E-02 14182   0.156E-01    0.400E-01
RMM:  21    -0.116031903379E+04   -0.76095E-02   -0.10099E-02 13479   0.960E-02    0.303E-01
RMM:  22    -0.116032337898E+04   -0.43452E-02   -0.37554E-03 13034   0.560E-02    0.276E-01
RMM:  23    -0.116032672116E+04   -0.33422E-02   -0.18468E-03 11129   0.392E-02    0.265E-01
RMM:  24    -0.116033325609E+04   -0.65349E-02   -0.40596E-03 10636   0.613E-02    0.248E-01
RMM:  25    -0.116034639751E+04   -0.13141E-01   -0.17538E-02 11087   0.134E-01    0.217E-01
RMM:  26    -0.116036083872E+04   -0.14441E-01   -0.33582E-02 11456   0.182E-01    0.186E-01
RMM:  27    -0.116036560360E+04   -0.47649E-02   -0.92540E-03 11460   0.753E-02    0.170E-01
RMM:  28    -0.116036937757E+04   -0.37740E-02   -0.39890E-03 10401   0.539E-02    0.163E-01
RMM:  29    -0.116037522781E+04   -0.58502E-02   -0.78919E-03 10670   0.795E-02    0.144E-01
RMM:  30    -0.116038271263E+04   -0.74848E-02   -0.18567E-02 10979   0.127E-01    0.125E-01
RMM:  31    -0.116038876032E+04   -0.60477E-02   -0.27829E-02 11323   0.151E-01    0.106E-01
RMM:  32    -0.116038886449E+04   -0.10417E-03   -0.69337E-03 10860   0.828E-02    0.170E-01
RMM:  33    -0.116039302210E+04   -0.41576E-02   -0.97827E-03 10864   0.875E-02    0.845E-02
RMM:  34    -0.116039437071E+04   -0.13486E-02   -0.54633E-03 10575   0.583E-02    0.699E-02
RMM:  35    -0.116039520891E+04   -0.83820E-03   -0.37012E-03 10057   0.514E-02    0.473E-02
RMM:  36    -0.116039424031E+04    0.96859E-03   -0.73966E-04  8837   0.374E-02    0.113E-01
RMM:  37    -0.116039457797E+04   -0.33765E-03   -0.30760E-04  7896   0.164E-02    0.107E-01
RMM:  38    -0.116039455823E+04    0.19739E-04   -0.44395E-05  6849   0.729E-03
   1 F= -.11603946E+04 E0= -.11603946E+04  d E =-.116039E+04  mag=     6.0016
       N       E                     dE             d eps       ncg     rms          rms(c)
DAV:   1    -0.114009496357E+04    0.20300E+02   -0.16030E+03 12432   0.408E+01    0.317E+01
RMM:   2    -0.116457795827E+04   -0.24483E+02   -0.29265E+02 14248   0.116E+01    0.187E+01
RMM:   3    -0.115846174006E+04    0.61162E+01   -0.16512E+01 13331   0.418E+00    0.140E+01
RMM:   4    -0.115657251528E+04    0.18892E+01   -0.91497E+00 14158   0.172E+00    0.947E+00
RMM:   5    -0.115702664189E+04   -0.45413E+00   -0.25498E+00 13667   0.797E-01    0.840E+00
RMM:   6    -0.115660277297E+04    0.42387E+00   -0.40796E+00 13149   0.117E+00    0.413E+00
RMM:   7    -0.115637728600E+04    0.22549E+00   -0.17042E-01 13138   0.489E-01    0.231E+00
RMM:   8    -0.115629437317E+04    0.82913E-01   -0.13195E-01 14257   0.221E-01    0.104E+00
RMM:   9    -0.115628646972E+04    0.79035E-02   -0.63829E-02 14825   0.139E-01    0.528E-01
RMM:  10    -0.115628551700E+04    0.95272E-03   -0.75987E-03 15171   0.715E-02    0.262E-01
RMM:  11    -0.115628638327E+04   -0.86627E-03   -0.29247E-03 13796   0.443E-02    0.198E-01
RMM:  12    -0.115628642439E+04   -0.41114E-04   -0.84086E-04 11743   0.252E-02
   2 F= -.11562864E+04 E0= -.11562853E+04  d E =0.410813E+01  mag=     5.9981
       N       E                     dE             d eps       ncg     rms          rms(c)
DAV:   1    -0.115917842631E+04   -0.28920E+01   -0.49158E+02 12632   0.182E+01    0.177E+01
RMM:   2    -0.116043010936E+04   -0.12517E+01   -0.20840E+01 12297   0.478E+00    0.151E+01
RMM:   3    -0.116043946869E+04   -0.93593E-02   -0.15576E+00 13625   0.137E+00    0.854E+00
RMM:   4    -0.116053799602E+04   -0.98527E-01   -0.17472E+00 12845   0.108E+00    0.544E+00
RMM:   5    -0.116020217453E+04    0.33582E+00   -0.41309E-01 13451   0.515E-01    0.126E+00
RMM:   6    -0.116019117648E+04    0.10998E-01   -0.42378E-02 14030   0.195E-01    0.840E-01
RMM:   7    -0.116019127142E+04   -0.94949E-04   -0.13164E-02 14401   0.101E-01    0.327E-01
RMM:   8    -0.116019043064E+04    0.84078E-03   -0.42803E-03 14801   0.495E-02    0.133E-01
RMM:   9    -0.116019030539E+04    0.12525E-03   -0.87280E-04 12782   0.249E-02    0.558E-02
RMM:  10    -0.116019034413E+04   -0.38745E-04   -0.34519E-04  9366   0.159E-02
   3 F= -.11601903E+04 E0= -.11601903E+04  d E =-.390392E+01  mag=     5.9991
       N       E                     dE             d eps       ncg     rms          rms(c)
DAV:   1    -0.116074552163E+04   -0.55522E+00   -0.23297E+02 12720   0.155E+01    0.560E+00
RMM:   2    -0.116142739352E+04   -0.68187E+00   -0.87492E+00 12298   0.304E+00    0.692E+00
RMM:   3    -0.116133306135E+04    0.94332E-01   -0.33040E-01 13761   0.759E-01    0.534E+00
RMM:   4    -0.116129931677E+04    0.33745E-01   -0.20042E-01 13133   0.421E-01    0.243E+00
RMM:   5    -0.116126879987E+04    0.30517E-01   -0.63253E-02 12622   0.249E-01    0.532E-01
RMM:   6    -0.116126637435E+04    0.24255E-02   -0.68458E-03 12800   0.854E-02    0.332E-01
RMM:   7    -0.116126550696E+04    0.86739E-03   -0.28443E-03 12448   0.422E-02    0.156E-01
RMM:   8    -0.116126540477E+04    0.10220E-03   -0.64981E-04 10681   0.256E-02    0.695E-02
RMM:   9    -0.116126542197E+04   -0.17202E-04   -0.21905E-04  8528   0.163E-02
   4 F= -.11612654E+04 E0= -.11612654E+04  d E =-.107508E+01  mag=     5.9999
       N       E                     dE             d eps       ncg     rms          rms(c)
DAV:   1    -0.116173117314E+04   -0.46577E+00   -0.48695E+01 12928   0.629E+00    0.271E+00
RMM:   2    -0.116181650030E+04   -0.85327E-01   -0.13208E+00 12312   0.121E+00    0.180E+00
RMM:   3    -0.116180464995E+04    0.11850E-01   -0.10094E-01 12745   0.417E-01    0.936E-01
RMM:   4    -0.116179684393E+04    0.78060E-02   -0.33851E-02 13233   0.170E-01    0.440E-01
RMM:   5    -0.116179532738E+04    0.15166E-02   -0.60774E-03 13367   0.848E-02    0.260E-01
RMM:   6    -0.116179526438E+04    0.62997E-04   -0.11871E-03 13686   0.289E-02    0.160E-01
RMM:   7    -0.116179531517E+04   -0.50789E-04   -0.56243E-04 11768   0.225E-02    0.611E-02
RMM:   8    -0.116179532640E+04   -0.11226E-04   -0.14727E-04  8596   0.145E-02
   5 F= -.11617953E+04 E0= -.11617953E+04  d E =-.529904E+00  mag=     6.0000
       N       E                     dE             d eps       ncg     rms          rms(c)
DAV:   1    -0.116200687757E+04   -0.21156E+00   -0.31012E+01 12720   0.548E+00    0.226E+00
RMM:   2    -0.116207346907E+04   -0.66591E-01   -0.91728E-01 12312   0.107E+00    0.188E+00
RMM:   3    -0.116206697091E+04    0.64982E-02   -0.63063E-02 13134   0.353E-01    0.113E+00
RMM:   4    -0.116206298961E+04    0.39813E-02   -0.24759E-02 12878   0.155E-01    0.531E-01
RMM:   5    -0.116206127780E+04    0.17118E-02   -0.47374E-03 13087   0.762E-02    0.182E-01
RMM:   6    -0.116206133853E+04   -0.60722E-04   -0.86242E-04 12233   0.245E-02    0.105E-01
RMM:   7    -0.116206138593E+04   -0.47403E-04   -0.26859E-04  9499   0.164E-02    0.560E-02
RMM:   8    -0.116206143407E+04   -0.48138E-04   -0.13553E-04  8319   0.120E-02
   6 F= -.11620614E+04 E0= -.11620614E+04  d E =-.266108E+00  mag=     6.0000
       N       E                     dE             d eps       ncg     rms          rms(c)
DAV:   1    -0.116206118665E+04    0.19928E-03   -0.46662E+01 12560   0.708E+00    0.282E+00
RMM:   2    -0.116217968700E+04   -0.11850E+00   -0.15639E+00 12295   0.143E+00    0.275E+00
RMM:   3    -0.116216834617E+04    0.11341E-01   -0.95859E-02 13942   0.436E-01    0.198E+00
RMM:   4    -0.116216224814E+04    0.60980E-02   -0.51671E-02 13073   0.222E-01    0.824E-01
RMM:   5    -0.116215858986E+04    0.36583E-02   -0.92037E-03 14235   0.104E-01    0.249E-01
RMM:   6    -0.116215850638E+04    0.83487E-04   -0.15110E-03 14009   0.343E-02    0.155E-01
RMM:   7    -0.116215857098E+04   -0.64606E-04   -0.56911E-04 12081   0.221E-02    0.781E-02
RMM:   8    -0.116215862735E+04   -0.56373E-04   -0.23561E-04  9285   0.161E-02
   7 F= -.11621586E+04 E0= -.11621586E+04  d E =-.971933E-01  mag=     6.0000
       N       E                     dE             d eps       ncg     rms          rms(c)
DAV:   1    -0.116218293022E+04   -0.24359E-01   -0.42897E+00 13440   0.235E+00    0.651E-01
RMM:   2    -0.116219162868E+04   -0.86985E-02   -0.12313E-01 12360   0.436E-01    0.639E-01
RMM:   3    -0.116219096602E+04    0.66266E-03   -0.65172E-03 12718   0.144E-01    0.448E-01
RMM:   4    -0.116219036795E+04    0.59807E-03   -0.34112E-03 12788   0.617E-02    0.257E-01
RMM:   5    -0.116219011737E+04    0.25058E-03   -0.89912E-04 11160   0.347E-02    0.709E-02
RMM:   6    -0.116219013348E+04   -0.16115E-04   -0.11543E-04  7939   0.145E-02    0.469E-02
RMM:   7    -0.116219016277E+04   -0.29289E-04   -0.61538E-05  7379   0.981E-03    0.323E-02
RMM:   8    -0.116219019865E+04   -0.35882E-04   -0.45058E-05  7224   0.925E-03
   8 F= -.11621902E+04 E0= -.11621902E+04  d E =-.315713E-01  mag=     6.0000
       N       E                     dE             d eps       ncg     rms          rms(c)
DAV:   1    -0.116218253391E+04    0.76289E-02   -0.68946E+00 12704   0.287E+00    0.899E-01
RMM:   2    -0.116219852019E+04   -0.15986E-01   -0.20342E-01 12322   0.536E-01    0.962E-01
RMM:   3    -0.116219746987E+04    0.10503E-02   -0.10360E-02 13152   0.161E-01    0.736E-01
RMM:   4    -0.116219710593E+04    0.36395E-03   -0.47049E-03 12522   0.697E-02    0.412E-01
RMM:   5    -0.116219642810E+04    0.67783E-03   -0.15004E-03 11645   0.412E-02    0.958E-02
RMM:   6    -0.116219640177E+04    0.26324E-04   -0.21776E-04  8725   0.168E-02    0.573E-02
RMM:   7    -0.116219641093E+04   -0.91552E-05   -0.74520E-05  7482   0.107E-02    0.341E-02
RMM:   8    -0.116219644155E+04   -0.30624E-04   -0.65818E-05  7255   0.998E-03
   9 F= -.11621964E+04 E0= -.11621964E+04  d E =-.624290E-02  mag=     6.0000
       N       E                     dE             d eps       ncg     rms          rms(c)
DAV:   1    -0.116218493725E+04    0.11474E-01   -0.22504E+01 12720   0.537E+00    0.123E+00
RMM:   2    -0.116223518603E+04   -0.50249E-01   -0.57760E-01 12335   0.928E-01    0.103E+00
RMM:   3    -0.116223401612E+04    0.11699E-02   -0.30292E-02 13067   0.306E-01    0.702E-01
RMM:   4    -0.116223289385E+04    0.11223E-02   -0.10106E-02 14824   0.105E-01    0.380E-01
RMM:   5    -0.116223227774E+04    0.61611E-03   -0.28757E-03 14457   0.497E-02    0.860E-02
RMM:   6    -0.116223228399E+04   -0.62472E-05   -0.34448E-04 10008   0.211E-02    0.594E-02
RMM:   7    -0.116223234480E+04   -0.60805E-04   -0.19846E-04  8589   0.149E-02    0.320E-02
RMM:   8    -0.116223239064E+04   -0.45843E-04   -0.93380E-05  7812   0.121E-02
  10 F= -.11622324E+04 E0= -.11622324E+04  d E =-.359491E-01  mag=     6.0000
       N       E                     dE             d eps       ncg     rms          rms(c)
DAV:   1    -0.116222653335E+04    0.58114E-02   -0.87620E+00 12720   0.337E+00    0.597E-01
RMM:   2    -0.116224544080E+04   -0.18907E-01   -0.20853E-01 12378   0.556E-01    0.400E-01
RMM:   3    -0.116224531099E+04    0.12981E-03   -0.10806E-02 12603   0.198E-01    0.264E-01
RMM:   4    -0.116224500703E+04    0.30396E-03   -0.35242E-03 14950   0.631E-02    0.128E-01
RMM:   5    -0.116224498055E+04    0.26473E-04   -0.71095E-04 12357   0.256E-02    0.398E-02
RMM:   6    -0.116224502185E+04   -0.41299E-04   -0.13101E-04  8280   0.152E-02    0.311E-02
RMM:   7    -0.116224509079E+04   -0.68942E-04   -0.13425E-04  7944   0.120E-02    0.238E-02
RMM:   8    -0.116224513455E+04   -0.43758E-04   -0.62362E-05  7324   0.958E-03
  11 F= -.11622451E+04 E0= -.11622451E+04  d E =-.127439E-01  mag=     6.0000
       N       E                     dE             d eps       ncg     rms          rms(c)
DAV:   1    -0.116224641538E+04   -0.13246E-02   -0.40654E+00 12768   0.229E+00    0.494E-01
RMM:   2    -0.116225559788E+04   -0.91825E-02   -0.10342E-01 12355   0.395E-01    0.444E-01
RMM:   3    -0.116225544758E+04    0.15030E-03   -0.53033E-03 12680   0.134E-01    0.309E-01
RMM:   4    -0.116225530425E+04    0.14333E-03   -0.18297E-03 13496   0.458E-02    0.189E-01
RMM:   5    -0.116225523155E+04    0.72700E-04   -0.64245E-04 11461   0.259E-02    0.445E-02
RMM:   6    -0.116225525839E+04   -0.26836E-04   -0.78680E-05  7496   0.142E-02    0.316E-02
RMM:   7    -0.116225530190E+04   -0.43511E-04   -0.78390E-05  7302   0.946E-03    0.248E-02
RMM:   8    -0.116225534977E+04   -0.47872E-04   -0.48204E-05  7064   0.944E-03
  12 F= -.11622553E+04 E0= -.11622553E+04  d E =-.102152E-01  mag=     6.0000
       N       E                     dE             d eps       ncg     rms          rms(c)
DAV:   1    -0.116225435604E+04    0.94586E-03   -0.35463E+00 12752   0.216E+00    0.384E-01
RMM:   2    -0.116226217330E+04   -0.78173E-02   -0.85399E-02 12537   0.359E-01    0.261E-01
RMM:   3    -0.116226213627E+04    0.37024E-04   -0.43767E-03 12723   0.125E-01    0.168E-01
RMM:   4    -0.116226201453E+04    0.12175E-03   -0.12304E-03 13377   0.395E-02    0.946E-02
RMM:   5    -0.116226204455E+04   -0.30027E-04   -0.34222E-04  9637   0.216E-02    0.349E-02
RMM:   6    -0.116226208750E+04   -0.42945E-04   -0.79741E-05  7328   0.135E-02    0.288E-02
RMM:   7    -0.116226213003E+04   -0.42530E-04   -0.63368E-05  7184   0.983E-03    0.277E-02
RMM:   8    -0.116226218322E+04   -0.53193E-04   -0.48405E-05  7034   0.961E-03
  13 F= -.11622622E+04 E0= -.11622622E+04  d E =-.683345E-02  mag=     6.0000
       N       E                     dE             d eps       ncg     rms          rms(c)
DAV:   1    -0.116225608123E+04    0.60488E-02   -0.63542E+00 12688   0.290E+00    0.523E-01
RMM:   2    -0.116227027562E+04   -0.14194E-01   -0.15062E-01 12547   0.478E-01    0.317E-01
RMM:   3    -0.116227028608E+04   -0.10455E-04   -0.76115E-03 12666   0.168E-01    0.204E-01
RMM:   4    -0.116227006933E+04    0.21675E-03   -0.21318E-03 14970   0.509E-02    0.104E-01
RMM:   5    -0.116227014265E+04   -0.73327E-04   -0.53391E-04 11190   0.239E-02    0.394E-02
RMM:   6    -0.116227019295E+04   -0.50299E-04   -0.11879E-04  7511   0.148E-02    0.312E-02
RMM:   7    -0.116227027233E+04   -0.79376E-04   -0.10810E-04  7453   0.114E-02    0.277E-02
RMM:   8    -0.116227033707E+04   -0.64747E-04   -0.64887E-05  7143   0.101E-02
  14 F= -.11622703E+04 E0= -.11622703E+04  d E =-.815385E-02  mag=     6.0000
       N       E                     dE             d eps       ncg     rms          rms(c)
DAV:   1    -0.116226924759E+04    0.10247E-02   -0.22612E+00 12848   0.173E+00    0.312E-01
RMM:   2    -0.116227437264E+04   -0.51251E-02   -0.54722E-02 12589   0.288E-01    0.197E-01
RMM:   3    -0.116227437847E+04   -0.58283E-05   -0.27628E-03 12684   0.988E-02    0.129E-01
RMM:   4    -0.116227435033E+04    0.28147E-04   -0.78165E-04 12444   0.320E-02    0.681E-02
RMM:   5    -0.116227442963E+04   -0.79302E-04   -0.21561E-04  7909   0.195E-02    0.341E-02
RMM:   6    -0.116227448636E+04   -0.56733E-04   -0.77146E-05  7210   0.120E-02    0.305E-02
RMM:   7    -0.116227456284E+04   -0.76481E-04   -0.72244E-05  7101   0.111E-02    0.300E-02
RMM:   8    -0.116227467130E+04   -0.10846E-03   -0.92032E-05  7051   0.111E-02    0.283E-02
RMM:   9    -0.116227472003E+04   -0.48725E-04   -0.47056E-05  6716   0.657E-03
  15 F= -.11622747E+04 E0= -.11622747E+04  d E =-.438295E-02  mag=     6.0000
       N       E                     dE             d eps       ncg     rms          rms(c)
DAV:   1    -0.116227376518E+04    0.90613E-03   -0.19855E+00 12760   0.164E+00    0.302E-01
RMM:   2    -0.116227830542E+04   -0.45402E-02   -0.48235E-02 12644   0.273E-01    0.190E-01
RMM:   3    -0.116227832485E+04   -0.19428E-04   -0.23660E-03 12595   0.922E-02    0.124E-01
RMM:   4    -0.116227831445E+04    0.10391E-04   -0.64464E-04 11804   0.303E-02    0.673E-02
RMM:   5    -0.116227840806E+04   -0.93606E-04   -0.20338E-04  7654   0.196E-02    0.353E-02
RMM:   6    -0.116227846737E+04   -0.59312E-04   -0.75027E-05  7159   0.119E-02    0.325E-02
RMM:   7    -0.116227852585E+04   -0.58481E-04   -0.54479E-05  7023   0.100E-02    0.323E-02
RMM:   8    -0.116227862915E+04   -0.10329E-03   -0.71515E-05  6946   0.103E-02    0.307E-02
RMM:   9    -0.116227870867E+04   -0.79523E-04   -0.58653E-05  6769   0.709E-03
  16 F= -.11622787E+04 E0= -.11622787E+04  d E =-.398864E-02  mag=     6.0000
