       N       E                     dE             d eps       ncg     rms          rms(c)
DAV:   1     0.118855776162E+05    0.11886E+05   -0.42095E+05 12352   0.131E+03
DAV:   2     0.640177850121E+03   -0.11245E+05   -0.10044E+05 12312   0.375E+02
DAV:   3    -0.136568415075E+04   -0.20059E+04   -0.19315E+04 13200   0.165E+02
DAV:   4    -0.149979690716E+04   -0.13411E+03   -0.13189E+03 16200   0.443E+01
DAV:   5    -0.150826047295E+04   -0.84636E+01   -0.84259E+01 22248   0.101E+01    0.180E+02
RMM:   6    -0.116462889545E+04    0.34363E+03   -0.15890E+03 12513   0.344E+01    0.109E+02
RMM:   7    -0.115014890267E+04    0.14480E+02   -0.59496E+01 12814   0.109E+01    0.634E+01
RMM:   8    -0.115408152782E+04   -0.39326E+01   -0.20815E+01 13647   0.519E+00    0.290E+01
RMM:   9    -0.115745208693E+04   -0.33706E+01   -0.52093E+00 13252   0.268E+00    0.872E+00
RMM:  10    -0.115855722493E+04   -0.11051E+01   -0.14415E+00 14578   0.115E+00    0.577E+00
RMM:  11    -0.115968389536E+04   -0.11267E+01   -0.13930E+00 14674   0.927E-01    0.380E+00
RMM:  12    -0.116034752453E+04   -0.66363E+00   -0.67299E-01 13114   0.792E-01    0.197E+00
RMM:  13    -0.116044383692E+04   -0.96312E-01   -0.14990E-01 16050   0.367E-01    0.133E+00
RMM:  14    -0.116050191284E+04   -0.58076E-01   -0.92749E-02 14289   0.262E-01    0.753E-01
RMM:  15    -0.116051333415E+04   -0.11421E-01   -0.28841E-02 15651   0.149E-01    0.387E-01
RMM:  16    -0.116051506854E+04   -0.17344E-02   -0.94956E-03 16906   0.800E-02    0.189E-01
RMM:  17    -0.116051571191E+04   -0.64337E-03   -0.31611E-03 15406   0.467E-02    0.928E-02
RMM:  18    -0.116051578400E+04   -0.72093E-04   -0.11082E-03 13095   0.265E-02    0.448E-02
RMM:  19    -0.116051584965E+04   -0.65652E-04   -0.53322E-04 10322   0.173E-02
   1 F= -.11605158E+04 E0= -.11605158E+04  d E =-.116052E+04  mag=     8.0040
       N       E                     dE             d eps       ncg     rms          rms(c)
DAV:   1    -0.116061379579E+04   -0.98012E-01   -0.36181E+02 14240   0.216E+01    0.846E+00
RMM:   2    -0.116132250988E+04   -0.70871E+00   -0.15279E+01 12288   0.479E+00    0.816E+00
RMM:   3    -0.116122577506E+04    0.96735E-01   -0.85982E-01 13825   0.130E+00    0.513E+00
RMM:   4    -0.116107705793E+04    0.14872E+00   -0.41454E-01 13660   0.652E-01    0.271E+00
RMM:   5    -0.116107677948E+04    0.27845E-03   -0.15512E-01 13454   0.467E-01    0.234E+00
RMM:   6    -0.116114658666E+04   -0.69807E-01   -0.45806E-02 14690   0.205E-01    0.539E+00
RMM:   7    -0.116111589066E+04    0.30696E-01   -0.32962E-02 14499   0.184E-01    0.496E+00
RMM:   8    -0.116111372101E+04    0.21697E-02   -0.97311E-02 12524   0.275E-01    0.631E+00
RMM:   9    -0.116116859388E+04   -0.54873E-01   -0.10009E-02 13184   0.123E-01    0.784E+00
RMM:  10    -0.116114917228E+04    0.19422E-01   -0.21670E-03 12944   0.662E-02    0.755E+00
RMM:  11    -0.116118743333E+04   -0.38261E-01   -0.18111E-03 11172   0.640E-02    0.815E+00
RMM:  12    -0.116114396138E+04    0.43472E-01   -0.42624E-03 11279   0.867E-02    0.766E+00
RMM:  13    -0.116119721774E+04   -0.53256E-01   -0.22649E-03 10995   0.747E-02    0.845E+00
RMM:  14    -0.116121669575E+04   -0.19478E-01   -0.48141E-03 11513   0.982E-02    0.881E+00
RMM:  15    -0.116118406183E+04    0.32634E-01   -0.49800E-03 11791   0.142E-01    0.836E+00
RMM:  16    -0.116122505787E+04   -0.40996E-01   -0.51725E-03 11672   0.993E-02    0.911E+00
RMM:  17    -0.116120514509E+04    0.19913E-01   -0.13446E-03 10968   0.646E-02    0.876E+00
RMM:  18    -0.116121795727E+04   -0.12812E-01   -0.10186E-03  9652   0.489E-02    0.894E+00
RMM:  19    -0.116123648360E+04   -0.18526E-01   -0.73318E-03 12159   0.109E-01    0.895E+00
RMM:  20    -0.116121021600E+04    0.26268E-01   -0.68408E-03 12205   0.117E-01    0.891E+00
RMM:  21    -0.116121130430E+04   -0.10883E-02   -0.63654E-03 11949   0.154E-01    0.862E+00
RMM:  22    -0.116114644923E+04    0.64855E-01   -0.20161E-02 12324   0.183E-01    0.797E+00
RMM:  23    -0.116114780279E+04   -0.13536E-02   -0.53943E-03 11908   0.138E-01    0.802E+00
RMM:  24    -0.116112235962E+04    0.25443E-01   -0.22587E-03 11293   0.700E-02    0.769E+00
RMM:  25    -0.116104631873E+04    0.76041E-01   -0.14954E-02 12573   0.132E-01    0.425E+00
RMM:  26    -0.116105105610E+04   -0.47374E-02   -0.50780E-02 12761   0.210E-01    0.174E+00
RMM:  27    -0.116107766124E+04   -0.26605E-01   -0.10338E-02 12919   0.130E-01    0.194E+00
RMM:  28    -0.116108029146E+04   -0.26302E-02   -0.65378E-03 12298   0.108E-01    0.167E+00
RMM:  29    -0.116107154744E+04    0.87440E-02   -0.14950E-02 12761   0.139E-01    0.502E-01
RMM:  30    -0.116107169374E+04   -0.14630E-03   -0.18573E-03 11835   0.490E-02    0.410E-01
RMM:  31    -0.116107118816E+04    0.50558E-03   -0.22625E-04  8625   0.218E-02    0.607E-01
RMM:  32    -0.116107034774E+04    0.84041E-03   -0.26033E-04  8803   0.192E-02    0.691E-01
RMM:  33    -0.116106976951E+04    0.57823E-03   -0.17303E-04  8166   0.138E-02    0.721E-01
RMM:  34    -0.116106843427E+04    0.13352E-02   -0.30557E-04  8858   0.191E-02    0.722E-01
RMM:  35    -0.116106627343E+04    0.21608E-02   -0.72741E-04 10289   0.265E-02    0.689E-01
RMM:  36    -0.116106263544E+04    0.36380E-02   -0.18944E-03 11010   0.447E-02    0.542E-01
RMM:  37    -0.116106097655E+04    0.16589E-02   -0.10191E-03 10636   0.298E-02    0.354E-01
RMM:  38    -0.116106081904E+04    0.15752E-03   -0.11837E-04  7710   0.125E-02    0.326E-01
RMM:  39    -0.116106047133E+04    0.34771E-03   -0.13006E-04  7427   0.102E-02    0.253E-01
RMM:  40    -0.116106028279E+04    0.18854E-03   -0.60904E-05  7093   0.865E-03
   2 F= -.11610603E+04 E0= -.11610529E+04  d E =-.544433E+00  mag=     7.7281
       N       E                     dE             d eps       ncg     rms          rms(c)
DAV:   1    -0.116127336833E+04   -0.21290E+00   -0.50731E+01 13296   0.824E+00    0.329E+00
RMM:   2    -0.116138501740E+04   -0.11165E+00   -0.18208E+00 12288   0.173E+00    0.311E+00
RMM:   3    -0.116137093412E+04    0.14083E-01   -0.88028E-02 13064   0.457E-01    0.211E+00
RMM:   4    -0.116136122928E+04    0.97048E-02   -0.55716E-02 13198   0.236E-01    0.160E+00
RMM:   5    -0.116135448147E+04    0.67478E-02   -0.19292E-02 12887   0.151E-01    0.425E-01
RMM:   6    -0.116135365931E+04    0.82216E-03   -0.39751E-03 13378   0.591E-02    0.233E-01
RMM:   7    -0.116135352328E+04    0.13602E-03   -0.97679E-04 11424   0.280E-02    0.175E-01
RMM:   8    -0.116135355062E+04   -0.27338E-04   -0.27520E-04  8848   0.218E-02
   3 F= -.11613536E+04 E0= -.11613536E+04  d E =-.837701E+00  mag=     7.9786
       N       E                     dE             d eps       ncg     rms          rms(c)
DAV:   1    -0.116149893758E+04   -0.14541E+00   -0.81325E+01 12768   0.106E+01    0.266E+00
RMM:   2    -0.116166489034E+04   -0.16595E+00   -0.24395E+00 12288   0.197E+00    0.218E+00
RMM:   3    -0.116165316958E+04    0.11721E-01   -0.11073E-01 13451   0.481E-01    0.139E+00
RMM:   4    -0.116164069961E+04    0.12470E-01   -0.35312E-02 14222   0.197E-01    0.784E-01
RMM:   5    -0.116163747363E+04    0.32260E-02   -0.12963E-02 13860   0.122E-01    0.280E-01
RMM:   6    -0.116163751186E+04   -0.38230E-04   -0.18614E-03 15890   0.468E-02    0.170E-01
RMM:   7    -0.116163748430E+04    0.27560E-04   -0.73380E-04 13970   0.216E-02    0.104E-01
RMM:   8    -0.116163751339E+04   -0.29095E-04   -0.42704E-04 10779   0.203E-02
   4 F= -.11616375E+04 E0= -.11616375E+04  d E =-.283963E+00  mag=     7.9984
       N       E                     dE             d eps       ncg     rms          rms(c)
DAV:   1    -0.116163969640E+04   -0.22121E-02   -0.24133E+00 14080   0.183E+00    0.456E-01
RMM:   2    -0.116164477398E+04   -0.50776E-02   -0.73808E-02 12288   0.341E-01    0.380E-01
RMM:   3    -0.116164440765E+04    0.36633E-03   -0.35235E-03 13340   0.859E-02    0.245E-01
RMM:   4    -0.116164404769E+04    0.35996E-03   -0.13106E-03 12545   0.363E-02    0.140E-01
RMM:   5    -0.116164394370E+04    0.10399E-03   -0.38359E-04 10274   0.221E-02    0.566E-02
RMM:   6    -0.116164394577E+04   -0.20719E-05   -0.58087E-05  7774   0.108E-02    0.281E-02
RMM:   7    -0.116164394676E+04   -0.99231E-06   -0.31196E-05  7364   0.775E-03    0.170E-02
RMM:   8    -0.116164394876E+04   -0.19953E-05   -0.21913E-05  7245   0.646E-03
   5 F= -.11616439E+04 E0= -.11616439E+04  d E =-.290398E+00  mag=     7.9996
       N       E                     dE             d eps       ncg     rms          rms(c)
DAV:   1    -0.116166023524E+04   -0.16288E-01   -0.41052E+01 12672   0.763E+00    0.192E+00
RMM:   2    -0.116175290479E+04   -0.92670E-01   -0.12450E+00 12292   0.140E+00    0.179E+00
RMM:   3    -0.116174619882E+04    0.67060E-02   -0.52680E-02 13046   0.365E-01    0.120E+00
RMM:   4    -0.116174156870E+04    0.46301E-02   -0.22593E-02 14202   0.154E-01    0.671E-01
RMM:   5    -0.116173893498E+04    0.26337E-02   -0.77006E-03 13710   0.942E-02    0.247E-01
RMM:   6    -0.116173896663E+04   -0.31652E-04   -0.10120E-03 13801   0.333E-02    0.945E-02
RMM:   7    -0.116173895940E+04    0.72250E-05   -0.42195E-04 10775   0.169E-02    0.616E-02
RMM:   8    -0.116173896746E+04   -0.80539E-05   -0.23630E-04  9174   0.158E-02
   6 F= -.11617390E+04 E0= -.11617388E+04  d E =-.950187E-01  mag=     7.9986
       N       E                     dE             d eps       ncg     rms          rms(c)
DAV:   1    -0.116173898747E+04   -0.28070E-04   -0.15921E-01 14320   0.476E-01    0.119E-01
RMM:   2    -0.116173936376E+04   -0.37629E-03   -0.50028E-03 12222   0.881E-02    0.113E-01
RMM:   3    -0.116173933418E+04    0.29587E-04   -0.19632E-04  8287   0.253E-02    0.771E-02
RMM:   4    -0.116173931690E+04    0.17280E-04   -0.10553E-04  7355   0.126E-02    0.403E-02
RMM:   5    -0.116173931234E+04    0.45569E-05   -0.43582E-05  7127   0.941E-03    0.174E-02
RMM:   6    -0.116173931419E+04   -0.18537E-05   -0.18914E-05  6898   0.606E-03    0.930E-03
RMM:   7    -0.116173931514E+04   -0.95180E-06   -0.10947E-05  6460   0.486E-03    0.631E-03
RMM:   8    -0.116173931590E+04   -0.75577E-06   -0.77235E-06  6022   0.379E-03
   7 F= -.11617393E+04 E0= -.11617392E+04  d E =-.953671E-01  mag=     7.9985
       N       E                     dE             d eps       ncg     rms          rms(c)
DAV:   1    -0.116174476267E+04   -0.54475E-02   -0.16377E+01 12856   0.482E+00    0.105E+00
RMM:   2    -0.116178218070E+04   -0.37418E-01   -0.45968E-01 12296   0.856E-01    0.904E-01
RMM:   3    -0.116178082894E+04    0.13518E-02   -0.19385E-02 13087   0.223E-01    0.588E-01
RMM:   4    -0.116177960708E+04    0.12219E-02   -0.68413E-03 14345   0.832E-02    0.333E-01
RMM:   5    -0.116177912983E+04    0.47724E-03   -0.22411E-03 13740   0.470E-02    0.799E-02
RMM:   6    -0.116177912572E+04    0.41099E-05   -0.29283E-04  9711   0.186E-02    0.521E-02
RMM:   7    -0.116177913236E+04   -0.66380E-05   -0.14844E-04  8005   0.130E-02    0.315E-02
RMM:   8    -0.116177913971E+04   -0.73473E-05   -0.86168E-05  7392   0.109E-02
   8 F= -.11617791E+04 E0= -.11617787E+04  d E =-.398238E-01  mag=     7.9955
       N       E                     dE             d eps       ncg     rms          rms(c)
DAV:   1    -0.116177561626E+04    0.35161E-02   -0.43516E+00 12960   0.248E+00    0.538E-01
RMM:   2    -0.116178556024E+04   -0.99440E-02   -0.12169E-01 12296   0.439E-01    0.462E-01
RMM:   3    -0.116178519709E+04    0.36314E-03   -0.52553E-03 13134   0.114E-01    0.301E-01
RMM:   4    -0.116178488552E+04    0.31157E-03   -0.19340E-03 13673   0.435E-02    0.171E-01
RMM:   5    -0.116178475164E+04    0.13388E-03   -0.61992E-04 11434   0.253E-02    0.437E-02
RMM:   6    -0.116178475052E+04    0.11293E-05   -0.78943E-05  7419   0.116E-02    0.270E-02
RMM:   7    -0.116178475285E+04   -0.23325E-05   -0.42920E-05  7230   0.892E-03    0.164E-02
RMM:   8    -0.116178475596E+04   -0.31129E-05   -0.29997E-05  7100   0.723E-03
   9 F= -.11617848E+04 E0= -.11617841E+04  d E =-.454401E-01  mag=     7.9928
       N       E                     dE             d eps       ncg     rms          rms(c)
DAV:   1    -0.116178641778E+04   -0.16649E-02   -0.14377E+01 12736   0.445E+00    0.891E-01
RMM:   2    -0.116181672934E+04   -0.30312E-01   -0.37465E-01 12297   0.761E-01    0.669E-01
RMM:   3    -0.116181553853E+04    0.11908E-02   -0.16322E-02 12779   0.210E-01    0.435E-01
RMM:   4    -0.116181447099E+04    0.10675E-02   -0.58696E-03 14972   0.764E-02    0.262E-01
RMM:   5    -0.116181413538E+04    0.33560E-03   -0.16537E-03 14151   0.395E-02    0.600E-02
RMM:   6    -0.116181414024E+04   -0.48591E-05   -0.27784E-04  9661   0.170E-02    0.427E-02
RMM:   7    -0.116181414820E+04   -0.79598E-05   -0.13440E-04  7833   0.134E-02    0.291E-02
RMM:   8    -0.116181415448E+04   -0.62764E-05   -0.77740E-05  7314   0.976E-03
  10 F= -.11618142E+04 E0= -.11618135E+04  d E =-.293985E-01  mag=     7.9918
       N       E                     dE             d eps       ncg     rms          rms(c)
DAV:   1    -0.116180979223E+04    0.43560E-02   -0.45188E+00 12864   0.250E+00    0.499E-01
RMM:   2    -0.116181938130E+04   -0.95891E-02   -0.11836E-01 12298   0.427E-01    0.375E-01
RMM:   3    -0.116181900117E+04    0.38012E-03   -0.52651E-03 12638   0.120E-01    0.243E-01
RMM:   4    -0.116181867804E+04    0.32313E-03   -0.19860E-03 14263   0.440E-02    0.144E-01
RMM:   5    -0.116181856544E+04    0.11260E-03   -0.54104E-04 11488   0.235E-02    0.333E-02
RMM:   6    -0.116181856649E+04   -0.10510E-05   -0.82113E-05  7359   0.114E-02    0.226E-02
RMM:   7    -0.116181857064E+04   -0.41491E-05   -0.54387E-05  7238   0.985E-03    0.161E-02
RMM:   8    -0.116181857340E+04   -0.27653E-05   -0.30957E-05  7019   0.721E-03
  11 F= -.11618186E+04 E0= -.11618179E+04  d E =-.338174E-01  mag=     7.9912
       N       E                     dE             d eps       ncg     rms          rms(c)
DAV:   1    -0.116181204387E+04    0.65268E-02   -0.10985E+01 12712   0.383E+00    0.731E-01
RMM:   2    -0.116183671408E+04   -0.24670E-01   -0.27789E-01 12303   0.646E-01    0.532E-01
RMM:   3    -0.116183612226E+04    0.59182E-03   -0.11935E-02 12527   0.185E-01    0.345E-01
RMM:   4    -0.116183546408E+04    0.65818E-03   -0.40312E-03 15165   0.635E-02    0.189E-01
RMM:   5    -0.116183536929E+04    0.94783E-04   -0.10523E-03 13542   0.310E-02    0.464E-02
RMM:   6    -0.116183537429E+04   -0.50001E-05   -0.16427E-04  8249   0.138E-02    0.311E-02
RMM:   7    -0.116183538035E+04   -0.60603E-05   -0.88778E-05  7520   0.119E-02    0.217E-02
RMM:   8    -0.116183538573E+04   -0.53739E-05   -0.59693E-05  7278   0.863E-03
  12 F= -.11618354E+04 E0= -.11618345E+04  d E =-.168123E-01  mag=     7.9872
       N       E                     dE             d eps       ncg     rms          rms(c)
DAV:   1    -0.116182923968E+04    0.61407E-02   -0.44178E+00 12960   0.243E+00    0.462E-01
RMM:   2    -0.116183917046E+04   -0.99308E-02   -0.11185E-01 12305   0.410E-01    0.337E-01
RMM:   3    -0.116183893250E+04    0.23796E-03   -0.49084E-03 12439   0.118E-01    0.219E-01
RMM:   4    -0.116183867425E+04    0.25825E-03   -0.17192E-03 13712   0.412E-02    0.116E-01
RMM:   5    -0.116183863183E+04    0.42420E-04   -0.40167E-04 10745   0.216E-02    0.295E-02
RMM:   6    -0.116183863619E+04   -0.43555E-05   -0.71522E-05  7342   0.119E-02    0.189E-02
RMM:   7    -0.116183864132E+04   -0.51381E-05   -0.63800E-05  7197   0.905E-03    0.137E-02
RMM:   8    -0.116183864411E+04   -0.27842E-05   -0.33577E-05  6966   0.754E-03
  13 F= -.11618386E+04 E0= -.11618376E+04  d E =-.200707E-01  mag=     7.9833
       N       E                     dE             d eps       ncg     rms          rms(c)
DAV:   1    -0.116182887590E+04    0.97654E-02   -0.10167E+01 12792   0.368E+00    0.736E-01
RMM:   2    -0.116185150362E+04   -0.22628E-01   -0.25593E-01 12305   0.622E-01    0.557E-01
RMM:   3    -0.116185105457E+04    0.44905E-03   -0.11431E-02 12419   0.186E-01    0.360E-01
RMM:   4    -0.116185040772E+04    0.64684E-03   -0.39933E-03 14991   0.632E-02    0.197E-01
RMM:   5    -0.116185028147E+04    0.12625E-03   -0.10739E-03 13342   0.314E-02    0.576E-02
RMM:   6    -0.116185028444E+04   -0.29661E-05   -0.15065E-04  8263   0.136E-02    0.325E-02
RMM:   7    -0.116185028925E+04   -0.48175E-05   -0.83791E-05  7505   0.114E-02    0.191E-02
RMM:   8    -0.116185029412E+04   -0.48706E-05   -0.58124E-05  7294   0.860E-03
  14 F= -.11618503E+04 E0= -.11618494E+04  d E =-.116500E-01  mag=     7.9871
       N       E                     dE             d eps       ncg     rms          rms(c)
DAV:   1    -0.116184983753E+04    0.45172E-03   -0.39328E-01 13616   0.724E-01    0.144E-01
RMM:   2    -0.116185073061E+04   -0.89308E-03   -0.10092E-02 12356   0.123E-01    0.110E-01
RMM:   3    -0.116185070658E+04    0.24027E-04   -0.45325E-04  9847   0.369E-02    0.719E-02
RMM:   4    -0.116185068103E+04    0.25553E-04   -0.16651E-04  7579   0.139E-02    0.381E-02
RMM:   5    -0.116185067836E+04    0.26667E-05   -0.45364E-05  7075   0.901E-03    0.202E-02
RMM:   6    -0.116185068036E+04   -0.20021E-05   -0.19858E-05  6840   0.623E-03    0.931E-03
RMM:   7    -0.116185068147E+04   -0.11077E-05   -0.12168E-05  6503   0.464E-03    0.769E-03
RMM:   8    -0.116185068216E+04   -0.69044E-06   -0.79267E-06  5696   0.399E-03
  15 F= -.11618507E+04 E0= -.11618498E+04  d E =-.120381E-01  mag=     7.9881
       N       E                     dE             d eps       ncg     rms          rms(c)
DAV:   1    -0.116184400027E+04    0.66812E-02   -0.72801E+00 12800   0.313E+00    0.591E-01
RMM:   2    -0.116186003145E+04   -0.16031E-01   -0.18044E-01 12298   0.520E-01    0.410E-01
RMM:   3    -0.116185969769E+04    0.33376E-03   -0.80890E-03 12284   0.158E-01    0.263E-01
RMM:   4    -0.116185928567E+04    0.41202E-03   -0.27543E-03 14720   0.521E-02    0.128E-01
RMM:   5    -0.116185923235E+04    0.53325E-04   -0.60562E-04 11924   0.242E-02    0.432E-02
RMM:   6    -0.116185923604E+04   -0.36954E-05   -0.10117E-04  7487   0.118E-02    0.245E-02
RMM:   7    -0.116185924209E+04   -0.60526E-05   -0.70245E-05  7309   0.101E-02    0.139E-02
RMM:   8    -0.116185924583E+04   -0.37384E-05   -0.39461E-05  7079   0.773E-03
  16 F= -.11618592E+04 E0= -.11618584E+04  d E =-.856367E-02  mag=     7.9897
       N       E                     dE             d eps       ncg     rms          rms(c)
DAV:   1    -0.116185674832E+04    0.24938E-02   -0.17084E+00 12864   0.152E+00    0.286E-01
RMM:   2    -0.116186054346E+04   -0.37951E-02   -0.42678E-02 12320   0.253E-01    0.199E-01
RMM:   3    -0.116186045835E+04    0.85102E-04   -0.19521E-03 12199   0.765E-02    0.128E-01
RMM:   4    -0.116186036192E+04    0.96439E-04   -0.66006E-04 11788   0.255E-02    0.616E-02
RMM:   5    -0.116186034650E+04    0.15417E-04   -0.12559E-04  7642   0.153E-02    0.209E-02
RMM:   6    -0.116186035119E+04   -0.46931E-05   -0.45312E-05  7103   0.948E-03    0.120E-02
RMM:   7    -0.116186035393E+04   -0.27425E-05   -0.27921E-05  6892   0.741E-03    0.933E-03
RMM:   8    -0.116186035579E+04   -0.18553E-05   -0.18230E-05  6611   0.578E-03
  17 F= -.11618604E+04 E0= -.11618596E+04  d E =-.967363E-02  mag=     7.9904
       N       E                     dE             d eps       ncg     rms          rms(c)
DAV:   1    -0.116184964990E+04    0.10704E-01   -0.76934E+00 12736   0.320E+00    0.600E-01
RMM:   2    -0.116186671205E+04   -0.17062E-01   -0.19473E-01 12298   0.547E-01    0.475E-01
RMM:   3    -0.116186635203E+04    0.36002E-03   -0.84849E-03 12383   0.157E-01    0.315E-01
RMM:   4    -0.116186589386E+04    0.45817E-03   -0.28793E-03 14473   0.537E-02    0.185E-01
RMM:   5    -0.116186574917E+04    0.14470E-03   -0.76972E-04 12104   0.273E-02    0.819E-02
RMM:   6    -0.116186575722E+04   -0.80545E-05   -0.12528E-04  7660   0.131E-02    0.288E-02
RMM:   7    -0.116186576050E+04   -0.32754E-05   -0.59500E-05  7274   0.102E-02    0.184E-02
RMM:   8    -0.116186576442E+04   -0.39228E-05   -0.46032E-05  7140   0.805E-03
  18 F= -.11618658E+04 E0= -.11618647E+04  d E =-.540863E-02  mag=     7.9867
       N       E                     dE             d eps       ncg     rms          rms(c)
DAV:   1    -0.116186576832E+04   -0.78238E-05   -0.41221E-05  7560   0.925E-03    0.595E-03
RMM:   2    -0.116186576993E+04   -0.16029E-05   -0.15575E-05  6392   0.552E-03    0.880E-03
RMM:   3    -0.116186577077E+04   -0.84397E-06   -0.83027E-06  5654   0.355E-03    0.286E-03
RMM:   4    -0.116186577124E+04   -0.46656E-06   -0.47175E-06  5032   0.354E-03    0.388E-03
RMM:   5    -0.116186577157E+04   -0.33656E-06   -0.29269E-06  3584   0.253E-03    0.176E-03
RMM:   6    -0.116186577173E+04   -0.15854E-06   -0.16786E-06  3122   0.259E-03    0.120E-03
RMM:   7    -0.116186577186E+04   -0.12519E-06   -0.10488E-06  2499   0.216E-03    0.587E-04
RMM:   8    -0.116186577190E+04   -0.44689E-07   -0.60060E-07  2218   0.222E-03
  19 F= -.11618658E+04 E0= -.11618647E+04  d E =-.541611E-02  mag=     7.9864
       N       E                     dE             d eps       ncg     rms          rms(c)
DAV:   1    -0.116186473860E+04    0.10333E-02   -0.17498E+00 12848   0.153E+00    0.300E-01
RMM:   2    -0.116186858469E+04   -0.38461E-02   -0.44597E-02 12297   0.262E-01    0.234E-01
RMM:   3    -0.116186846922E+04    0.11547E-03   -0.19439E-03 12159   0.750E-02    0.152E-01
RMM:   4    -0.116186833667E+04    0.13255E-03   -0.64918E-04 11628   0.260E-02    0.849E-02
RMM:   5    -0.116186830151E+04    0.35152E-04   -0.15361E-04  8171   0.166E-02    0.372E-02
RMM:   6    -0.116186830580E+04   -0.42857E-05   -0.42030E-05  7109   0.101E-02    0.155E-02
RMM:   7    -0.116186830766E+04   -0.18601E-05   -0.22347E-05  6848   0.671E-03    0.115E-02
RMM:   8    -0.116186830879E+04   -0.11256E-05   -0.13929E-05  6534   0.564E-03
  20 F= -.11618683E+04 E0= -.11618671E+04  d E =-.253688E-02  mag=     7.9843
       N       E                     dE             d eps       ncg     rms          rms(c)
DAV:   1    -0.116186812313E+04    0.18453E-03   -0.17347E-01 12608   0.483E-01    0.944E-02
RMM:   2    -0.116186851417E+04   -0.39104E-03   -0.45161E-03 12307   0.835E-02    0.742E-02
RMM:   3    -0.116186849942E+04    0.14742E-04   -0.17512E-04  7638   0.250E-02    0.484E-02
RMM:   4    -0.116186848744E+04    0.11982E-04   -0.68696E-05  7063   0.100E-02    0.272E-02
RMM:   5    -0.116186848636E+04    0.10811E-05   -0.24014E-05  6874   0.733E-03    0.217E-02
RMM:   6    -0.116186848747E+04   -0.11120E-05   -0.11523E-05  6493   0.447E-03    0.632E-03
RMM:   7    -0.116186848797E+04   -0.49386E-06   -0.57401E-06  5504   0.395E-03    0.595E-03
RMM:   8    -0.116186848832E+04   -0.35146E-06   -0.36655E-06  4187   0.270E-03
  21 F= -.11618685E+04 E0= -.11618673E+04  d E =-.271642E-02  mag=     7.9834
       N       E                     dE             d eps       ncg     rms          rms(c)
DAV:   1    -0.116186690406E+04    0.15839E-02   -0.17066E+00 12720   0.153E+00    0.300E-01
RMM:   2    -0.116187069778E+04   -0.37937E-02   -0.44067E-02 12299   0.261E-01    0.227E-01
RMM:   3    -0.116187058558E+04    0.11221E-03   -0.19137E-03 12150   0.763E-02    0.148E-01
RMM:   4    -0.116187047742E+04    0.10816E-03   -0.69592E-04 11554   0.264E-02    0.736E-02
RMM:   5    -0.116187044804E+04    0.29388E-04   -0.12995E-04  7880   0.162E-02    0.260E-02
RMM:   6    -0.116187045257E+04   -0.45396E-05   -0.42289E-05  7089   0.977E-03    0.179E-02
RMM:   7    -0.116187045490E+04   -0.23222E-05   -0.23907E-05  6841   0.702E-03    0.111E-02
RMM:   8    -0.116187045655E+04   -0.16567E-05   -0.16986E-05  6769   0.589E-03
  22 F= -.11618705E+04 E0= -.11618693E+04  d E =-.196824E-02  mag=     7.9848
       N       E                     dE             d eps       ncg     rms          rms(c)
DAV:   1    -0.116187036247E+04    0.92428E-04   -0.80024E-02 12960   0.332E-01    0.647E-02
RMM:   2    -0.116187054655E+04   -0.18408E-03   -0.21280E-03 12299   0.575E-02    0.495E-02
RMM:   3    -0.116187053896E+04    0.75923E-05   -0.79635E-05  7041   0.177E-02    0.324E-02
RMM:   4    -0.116187053522E+04    0.37397E-05   -0.38931E-05  6990   0.727E-03    0.167E-02
RMM:   5    -0.116187053510E+04    0.12363E-06   -0.11819E-05  6751   0.512E-03    0.122E-02
RMM:   6    -0.116187053571E+04   -0.60763E-06   -0.56427E-06  5611   0.318E-03    0.411E-03
RMM:   7    -0.116187053600E+04   -0.29376E-06   -0.28186E-06  4416   0.310E-03    0.341E-03
RMM:   8    -0.116187053619E+04   -0.18915E-06   -0.16211E-06  3336   0.222E-03
  23 F= -.11618705E+04 E0= -.11618694E+04  d E =-.204787E-02  mag=     7.9852
       N       E                     dE             d eps       ncg     rms          rms(c)
DAV:   1    -0.116186944366E+04    0.10923E-02   -0.98182E-01 12816   0.116E+00    0.234E-01
RMM:   2    -0.116187161662E+04   -0.21730E-02   -0.25733E-02 12300   0.200E-01    0.186E-01
RMM:   3    -0.116187153770E+04    0.78926E-04   -0.11012E-03 11979   0.562E-02    0.122E-01
RMM:   4    -0.116187145674E+04    0.80955E-04   -0.40181E-04 10013   0.207E-02    0.707E-02
RMM:   5    -0.116187143411E+04    0.22631E-04   -0.84046E-05  7352   0.133E-02    0.309E-02
RMM:   6    -0.116187143747E+04   -0.33622E-05   -0.29230E-05  7031   0.801E-03    0.126E-02
RMM:   7    -0.116187143871E+04   -0.12400E-05   -0.14541E-05  6719   0.578E-03    0.903E-03
RMM:   8    -0.116187143960E+04   -0.89125E-06   -0.92224E-06  6257   0.429E-03
  24 F= -.11618714E+04 E0= -.11618704E+04  d E =-.903415E-03  mag=     7.9863
