       N       E                     dE             d eps       ncg     rms          rms(c)
DAV:   1    -0.115898823276E+04   -0.11590E+04   -0.11246E-05  7936   0.145E-02    0.272E-02
RMM:   2    -0.115898823227E+04    0.48403E-06   -0.15767E-05  6051   0.598E-03    0.462E-02
RMM:   3    -0.115898823295E+04   -0.67535E-06   -0.37181E-06  4916   0.307E-03    0.699E-03
RMM:   4    -0.115898823376E+04   -0.81575E-06   -0.13356E-06  3193   0.221E-03    0.592E-03
RMM:   5    -0.115898823443E+04   -0.66507E-06   -0.10646E-06  2845   0.210E-03    0.422E-03
RMM:   6    -0.115898823538E+04   -0.95194E-06   -0.95445E-07  2884   0.205E-03    0.374E-03
RMM:   7    -0.115898823648E+04   -0.10978E-05   -0.10644E-06  2908   0.205E-03    0.365E-03
RMM:   8    -0.115898823800E+04   -0.15215E-05   -0.26189E-06  3768   0.245E-03
   1 F= -.11589882E+04 E0= -.11589882E+04  d E =-.115899E+04  mag=    12.0000
       N       E                     dE             d eps       ncg     rms          rms(c)
DAV:   1    -0.115898855614E+04   -0.31966E-03   -0.25741E-01 12608   0.585E-01    0.149E-01
RMM:   2    -0.115898897563E+04   -0.41949E-03   -0.79509E-03 12248   0.112E-01    0.152E-01
RMM:   3    -0.115898890624E+04    0.69392E-04   -0.28184E-04  9112   0.282E-02    0.105E-01
RMM:   4    -0.115898883277E+04    0.73470E-04   -0.23228E-04  8601   0.172E-02    0.526E-02
RMM:   5    -0.115898881344E+04    0.19328E-04   -0.55759E-05  7201   0.103E-02    0.180E-02
RMM:   6    -0.115898881470E+04   -0.12625E-05   -0.16331E-05  6737   0.558E-03    0.142E-02
RMM:   7    -0.115898881547E+04   -0.76208E-06   -0.67191E-06  5813   0.372E-03    0.105E-02
RMM:   8    -0.115898881622E+04   -0.75616E-06   -0.38958E-06  5293   0.297E-03
   2 F= -.11589888E+04 E0= -.11589888E+04  d E =-.578221E-03  mag=    12.0000
       N       E                     dE             d eps       ncg     rms          rms(c)
DAV:   1    -0.115898887416E+04   -0.58698E-04   -0.15571E-02 12928   0.144E-01    0.365E-02
RMM:   2    -0.115898889801E+04   -0.23851E-04   -0.46865E-04 10579   0.280E-02    0.371E-02
RMM:   3    -0.115898889475E+04    0.32611E-05   -0.19701E-05  6507   0.776E-03    0.249E-02
RMM:   4    -0.115898889039E+04    0.43662E-05   -0.12204E-05  5860   0.440E-03    0.131E-02
RMM:   5    -0.115898888912E+04    0.12674E-05   -0.36412E-06  4764   0.288E-03    0.419E-03
RMM:   6    -0.115898888914E+04   -0.15876E-07   -0.48676E-07  2411   0.188E-03    0.267E-03
RMM:   7    -0.115898888914E+04    0.42201E-09   -0.64569E-08  1646   0.173E-03    0.160E-03
RMM:   8    -0.115898888914E+04   -0.34051E-08   -0.20328E-08  1150   0.173E-03
   3 F= -.11589889E+04 E0= -.11589889E+04  d E =-.651138E-03  mag=    12.0000
       N       E                     dE             d eps       ncg     rms          rms(c)
DAV:   1    -0.115898897700E+04   -0.87865E-04   -0.24217E-01 12592   0.568E-01    0.114E-01
RMM:   2    -0.115898952816E+04   -0.55115E-03   -0.61957E-03 12206   0.980E-02    0.837E-02
RMM:   3    -0.115898951441E+04    0.13746E-04   -0.23454E-04  8066   0.280E-02    0.544E-02
RMM:   4    -0.115898949673E+04    0.17681E-04   -0.83747E-05  7118   0.118E-02    0.347E-02
RMM:   5    -0.115898949764E+04   -0.91468E-06   -0.26853E-05  6864   0.783E-03    0.291E-02
RMM:   6    -0.115898950010E+04   -0.24543E-05   -0.12518E-05  6540   0.480E-03    0.916E-03
RMM:   7    -0.115898950145E+04   -0.13557E-05   -0.51603E-06  5510   0.367E-03    0.887E-03
RMM:   8    -0.115898950267E+04   -0.12197E-05   -0.35623E-06  4821   0.271E-03
   4 F= -.11589895E+04 E0= -.11589895E+04  d E =-.613534E-03  mag=    12.0000
       N       E                     dE             d eps       ncg     rms          rms(c)
DAV:   1    -0.115898930585E+04    0.19561E-03   -0.16288E-01 12448   0.466E-01    0.934E-02
RMM:   2    -0.115898968315E+04   -0.37731E-03   -0.42133E-03 12160   0.812E-02    0.692E-02
RMM:   3    -0.115898967482E+04    0.83323E-05   -0.16118E-04  7562   0.239E-02    0.451E-02
RMM:   4    -0.115898966637E+04    0.84569E-05   -0.64524E-05  7122   0.102E-02    0.313E-02
RMM:   5    -0.115898966789E+04   -0.15211E-05   -0.20567E-05  6864   0.695E-03    0.262E-02
RMM:   6    -0.115898967058E+04   -0.26907E-05   -0.11420E-05  6517   0.426E-03    0.833E-03
RMM:   7    -0.115898967207E+04   -0.14961E-05   -0.45872E-06  5411   0.357E-03    0.819E-03
RMM:   8    -0.115898967361E+04   -0.15409E-05   -0.35195E-06  4515   0.257E-03
   5 F= -.11589897E+04 E0= -.11589897E+04  d E =-.784475E-03  mag=    12.0000
       N       E                     dE             d eps       ncg     rms          rms(c)
DAV:   1    -0.115898976751E+04   -0.95438E-04   -0.17212E-01 12416   0.477E-01    0.894E-02
RMM:   2    -0.115899015934E+04   -0.39183E-03   -0.43564E-03 12180   0.805E-02    0.665E-02
RMM:   3    -0.115899014888E+04    0.10458E-04   -0.16872E-04  7602   0.239E-02    0.435E-02
RMM:   4    -0.115899014337E+04    0.55117E-05   -0.63735E-05  7082   0.101E-02    0.322E-02
RMM:   5    -0.115899014535E+04   -0.19855E-05   -0.20313E-05  6811   0.696E-03    0.248E-02
RMM:   6    -0.115899014867E+04   -0.33135E-05   -0.11616E-05  6460   0.428E-03    0.876E-03
RMM:   7    -0.115899015050E+04   -0.18369E-05   -0.49694E-06  5475   0.371E-03    0.862E-03
RMM:   8    -0.115899015231E+04   -0.18076E-05   -0.36934E-06  4591   0.260E-03
   6 F= -.11589902E+04 E0= -.11589902E+04  d E =-.478697E-03  mag=    12.0000
