       N       E                     dE             d eps       ncg     rms          rms(c)
DAV:   1    -0.116520378248E+04   -0.11652E+04   -0.33333E-06  3656   0.309E-03    0.524E-03
RMM:   2    -0.116520378236E+04    0.11068E-06   -0.75847E-07  1518   0.198E-03    0.412E-03
RMM:   3    -0.116520378216E+04    0.19971E-06   -0.95615E-09  1058   0.165E-03    0.532E-04
RMM:   4    -0.116520378216E+04   -0.23283E-09    0.00000E+00   375   0.164E-03    0.312E-04
RMM:   5    -0.116520378217E+04   -0.21828E-09    0.00000E+00   297   0.164E-03    0.160E-04
RMM:   6    -0.116520378217E+04   -0.18917E-09    0.00000E+00   259   0.164E-03    0.680E-05
RMM:   7    -0.116520378217E+04    0.14552E-10    0.00000E+00   232   0.164E-03    0.243E-05
RMM:   8    -0.116520378217E+04    0.72760E-10    0.00000E+00   215   0.164E-03
   1 F= -.11652038E+04 E0= -.11651977E+04  d E =-.116520E+04  mag=     3.9809
       N       E                     dE             d eps       ncg     rms          rms(c)
DAV:   1    -0.116520387513E+04   -0.92962E-04   -0.63200E-02  6112   0.284E-01    0.896E-02
RMM:   2    -0.116520393520E+04   -0.60073E-04   -0.21695E-03  6048   0.574E-02    0.882E-02
RMM:   3    -0.116520389560E+04    0.39598E-04   -0.71604E-05  3660   0.122E-02    0.588E-02
RMM:   4    -0.116520386427E+04    0.31332E-04   -0.96493E-05  3570   0.105E-02    0.262E-02
RMM:   5    -0.116520385524E+04    0.90277E-05   -0.17292E-05  3201   0.470E-03    0.113E-02
RMM:   6    -0.116520385492E+04    0.31781E-06   -0.43717E-06  2499   0.242E-03    0.753E-03
RMM:   7    -0.116520385496E+04   -0.34881E-07   -0.10142E-06  1782   0.189E-03    0.478E-03
RMM:   8    -0.116520385497E+04   -0.55006E-08   -0.14381E-07  1405   0.175E-03
   2 F= -.11652039E+04 E0= -.11651978E+04  d E =-.728001E-04  mag=     3.9808
       N       E                     dE             d eps       ncg     rms          rms(c)
DAV:   1    -0.116520407111E+04   -0.21615E-03   -0.16425E-02  6112   0.144E-01    0.471E-02
RMM:   2    -0.116520407126E+04   -0.14951E-06   -0.62378E-04  5581   0.304E-02    0.505E-02
RMM:   3    -0.116520405776E+04    0.13503E-04   -0.22296E-05  3118   0.648E-03    0.344E-02
RMM:   4    -0.116520404643E+04    0.11332E-04   -0.33576E-05  3003   0.616E-03    0.150E-02
RMM:   5    -0.116520404279E+04    0.36393E-05   -0.57480E-06  2407   0.285E-03    0.717E-03
RMM:   6    -0.116520404254E+04    0.24519E-06   -0.12422E-07  1124   0.174E-03    0.452E-03
RMM:   7    -0.116520404254E+04    0.14261E-08   -0.45806E-07   845   0.188E-03    0.221E-03
RMM:   8    -0.116520404257E+04   -0.24404E-07   -0.33414E-07   657   0.190E-03
   3 F= -.11652040E+04 E0= -.11651979E+04  d E =-.187601E-03  mag=     3.9808
