       N       E                     dE             d eps       ncg     rms          rms(c)
DAV:   1    -0.116207828583E+04   -0.11621E+04   -0.63283E-06  7576   0.500E-03    0.592E-03
RMM:   2    -0.116207828685E+04   -0.10191E-05   -0.26387E-06  4210   0.268E-03    0.717E-03
RMM:   3    -0.116207828721E+04   -0.35943E-06   -0.80347E-07  2173   0.193E-03    0.274E-03
RMM:   4    -0.116207828762E+04   -0.41553E-06   -0.47605E-07  1762   0.191E-03    0.287E-03
RMM:   5    -0.116207828779E+04   -0.16375E-06   -0.21075E-07  1301   0.179E-03    0.275E-03
RMM:   6    -0.116207828762E+04    0.16156E-06   -0.65654E-08   959   0.175E-03    0.282E-03
RMM:   7    -0.116207828927E+04   -0.16468E-05   -0.11674E-06  2153   0.211E-03    0.286E-03
RMM:   8    -0.116207829117E+04   -0.19036E-05   -0.21219E-06  2631   0.223E-03
   1 F= -.11620783E+04 E0= -.11620783E+04  d E =-.116208E+04  mag=     4.0000
       N       E                     dE             d eps       ncg     rms          rms(c)
DAV:   1    -0.116207838013E+04   -0.90863E-04   -0.55915E-02 12240   0.268E-01    0.534E-02
RMM:   2    -0.116207849236E+04   -0.11223E-03   -0.14210E-03 11981   0.460E-02    0.377E-02
RMM:   3    -0.116207848523E+04    0.71340E-05   -0.57678E-05  6463   0.160E-02    0.239E-02
RMM:   4    -0.116207848052E+04    0.47038E-05   -0.31295E-05  6410   0.672E-03    0.140E-02
RMM:   5    -0.116207848117E+04   -0.64520E-06   -0.63405E-06  5468   0.403E-03    0.821E-03
RMM:   6    -0.116207848209E+04   -0.92336E-06   -0.32604E-06  4138   0.272E-03    0.533E-03
RMM:   7    -0.116207848299E+04   -0.90229E-06   -0.15303E-06  2968   0.236E-03    0.433E-03
RMM:   8    -0.116207848416E+04   -0.11701E-05   -0.13402E-06  2630   0.224E-03
   2 F= -.11620785E+04 E0= -.11620785E+04  d E =-.192988E-03  mag=     4.0000
       N       E                     dE             d eps       ncg     rms          rms(c)
DAV:   1    -0.116207862113E+04   -0.13814E-03   -0.11765E-02 12160   0.123E-01    0.296E-02
RMM:   2    -0.116207863517E+04   -0.14037E-04   -0.31302E-04  8587   0.228E-02    0.271E-02
RMM:   3    -0.116207863449E+04    0.67923E-06   -0.24698E-05  6099   0.912E-03    0.154E-02
RMM:   4    -0.116207863287E+04    0.16248E-05   -0.11371E-05  5592   0.435E-03    0.116E-02
RMM:   5    -0.116207863292E+04   -0.55821E-07   -0.47037E-06  4890   0.332E-03    0.452E-03
RMM:   6    -0.116207863392E+04   -0.99804E-06   -0.21249E-06  3057   0.222E-03    0.402E-03
RMM:   7    -0.116207863467E+04   -0.74903E-06   -0.72651E-07  2278   0.204E-03    0.353E-03
RMM:   8    -0.116207863619E+04   -0.15214E-05   -0.12448E-06  2222   0.203E-03
   3 F= -.11620786E+04 E0= -.11620786E+04  d E =-.152029E-03  mag=     4.0000
       N       E                     dE             d eps       ncg     rms          rms(c)
DAV:   1    -0.116207872475E+04   -0.90084E-04   -0.15041E-02 12112   0.139E-01    0.253E-02
RMM:   2    -0.116207875514E+04   -0.30380E-04   -0.34539E-04  7846   0.234E-02    0.192E-02
RMM:   3    -0.116207875671E+04   -0.15753E-05   -0.23925E-05  6084   0.951E-03    0.112E-02
RMM:   4    -0.116207875750E+04   -0.79088E-06   -0.80535E-06  5483   0.384E-03    0.917E-03
RMM:   5    -0.116207875848E+04   -0.97860E-06   -0.29258E-06  4157   0.284E-03    0.444E-03
RMM:   6    -0.116207875962E+04   -0.11367E-05   -0.17585E-06  2745   0.219E-03    0.357E-03
RMM:   7    -0.116207876034E+04   -0.72106E-06   -0.70037E-07  2193   0.203E-03    0.346E-03
RMM:   8    -0.116207876059E+04   -0.25646E-06   -0.23936E-07  1297   0.181E-03
   4 F= -.11620788E+04 E0= -.11620788E+04  d E =-.124403E-03  mag=     4.0000
       N       E                     dE             d eps       ncg     rms          rms(c)
DAV:   1    -0.116207884513E+04   -0.84789E-04   -0.20178E-02 12160   0.161E-01    0.286E-02
RMM:   2    -0.116207888888E+04   -0.43757E-04   -0.47939E-04  9296   0.270E-02    0.196E-02
RMM:   3    -0.116207888961E+04   -0.72701E-06   -0.25880E-05  6177   0.103E-02    0.121E-02
RMM:   4    -0.116207889060E+04   -0.98582E-06   -0.97100E-06  5669   0.404E-03    0.778E-03
RMM:   5    -0.116207889183E+04   -0.12282E-05   -0.26368E-06  4083   0.269E-03    0.403E-03
RMM:   6    -0.116207889303E+04   -0.12009E-05   -0.18244E-06  2640   0.227E-03    0.358E-03
RMM:   7    -0.116207889384E+04   -0.81610E-06   -0.58229E-07  1991   0.202E-03    0.348E-03
RMM:   8    -0.116207889459E+04   -0.75060E-06   -0.55776E-07  1746   0.197E-03
   5 F= -.11620789E+04 E0= -.11620789E+04  d E =-.133999E-03  mag=     4.0000
       N       E                     dE             d eps       ncg     rms          rms(c)
DAV:   1    -0.116207897612E+04   -0.82272E-04   -0.18398E-02 12160   0.154E-01    0.272E-02
RMM:   2    -0.116207901459E+04   -0.38473E-04   -0.42968E-04  8871   0.257E-02    0.190E-02
RMM:   3    -0.116207901574E+04   -0.11537E-05   -0.25781E-05  6209   0.101E-02    0.116E-02
RMM:   4    -0.116207901679E+04   -0.10526E-05   -0.95319E-06  5635   0.401E-03    0.834E-03
RMM:   5    -0.116207901805E+04   -0.12511E-05   -0.28142E-06  4196   0.280E-03    0.442E-03
RMM:   6    -0.116207901935E+04   -0.13095E-05   -0.20081E-06  2770   0.227E-03    0.385E-03
RMM:   7    -0.116207902018E+04   -0.82499E-06   -0.66043E-07  2122   0.206E-03    0.367E-03
RMM:   8    -0.116207902108E+04   -0.89765E-06   -0.64528E-07  1815   0.197E-03
   6 F= -.11620790E+04 E0= -.11620790E+04  d E =-.126484E-03  mag=     4.0000
       N       E                     dE             d eps       ncg     rms          rms(c)
DAV:   1    -0.116207910457E+04   -0.84393E-04   -0.34777E-02 12160   0.211E-01    0.359E-02
RMM:   2    -0.116207918208E+04   -0.77510E-04   -0.82883E-04 10889   0.348E-02    0.234E-02
RMM:   3    -0.116207918178E+04    0.29872E-06   -0.36655E-05  6367   0.127E-02    0.152E-02
RMM:   4    -0.116207918297E+04   -0.11851E-05   -0.15007E-05  6088   0.476E-03    0.866E-03
RMM:   5    -0.116207918445E+04   -0.14841E-05   -0.34680E-06  4495   0.286E-03    0.447E-03
RMM:   6    -0.116207918588E+04   -0.14230E-05   -0.20113E-06  2944   0.248E-03    0.414E-03
RMM:   7    -0.116207918698E+04   -0.11055E-05   -0.84863E-07  2173   0.203E-03    0.375E-03
RMM:   8    -0.116207919004E+04   -0.30551E-05   -0.32534E-06  3088   0.253E-03
   7 F= -.11620792E+04 E0= -.11620792E+04  d E =-.168959E-03  mag=     4.0000
       N       E                     dE             d eps       ncg     rms          rms(c)
DAV:   1    -0.116207926383E+04   -0.76844E-04   -0.65519E-02 12128   0.289E-01    0.487E-02
RMM:   2    -0.116207940916E+04   -0.14533E-03   -0.15518E-03 11940   0.475E-02    0.314E-02
RMM:   3    -0.116207940743E+04    0.17297E-05   -0.65739E-05  6657   0.174E-02    0.203E-02
RMM:   4    -0.116207940815E+04   -0.72594E-06   -0.25643E-05  6357   0.607E-03    0.115E-02
RMM:   5    -0.116207941002E+04   -0.18635E-05   -0.61988E-06  5207   0.353E-03    0.521E-03
RMM:   6    -0.116207941185E+04   -0.18302E-05   -0.35225E-06  3909   0.291E-03    0.465E-03
RMM:   7    -0.116207941327E+04   -0.14214E-05   -0.17033E-06  2838   0.221E-03    0.407E-03
RMM:   8    -0.116207941674E+04   -0.34689E-05   -0.38567E-06  3286   0.264E-03
   8 F= -.11620794E+04 E0= -.11620794E+04  d E =-.226702E-03  mag=     4.0000
       N       E                     dE             d eps       ncg     rms          rms(c)
DAV:   1    -0.116207945358E+04   -0.40307E-04   -0.96817E-02 12240   0.352E-01    0.585E-02
RMM:   2    -0.116207966867E+04   -0.21509E-03   -0.22885E-03 12169   0.576E-02    0.377E-02
RMM:   3    -0.116207966558E+04    0.30891E-05   -0.93763E-05  6890   0.206E-02    0.242E-02
RMM:   4    -0.116207966601E+04   -0.43723E-06   -0.35392E-05  6677   0.716E-03    0.131E-02
RMM:   5    -0.116207966813E+04   -0.21210E-05   -0.86261E-06  5929   0.415E-03    0.625E-03
RMM:   6    -0.116207967003E+04   -0.18995E-05   -0.45580E-06  4430   0.319E-03    0.548E-03
RMM:   7    -0.116207967159E+04   -0.15561E-05   -0.24056E-06  3456   0.245E-03    0.471E-03
RMM:   8    -0.116207967437E+04   -0.27820E-05   -0.27727E-06  3211   0.257E-03
   9 F= -.11620797E+04 E0= -.11620797E+04  d E =-.257634E-03  mag=     4.0000
