       N       E                     dE             d eps       ncg     rms          rms(c)
DAV:   1    -0.116340731678E+04   -0.11634E+04   -0.84381E-06  7760   0.777E-03    0.962E-03
RMM:   2    -0.116340731689E+04   -0.10579E-06   -0.46117E-06  5521   0.350E-03    0.119E-02
RMM:   3    -0.116340731696E+04   -0.72439E-07   -0.14617E-06  3587   0.226E-03    0.194E-03
RMM:   4    -0.116340731705E+04   -0.91124E-07   -0.83047E-07  2650   0.208E-03    0.276E-03
RMM:   5    -0.116340731710E+04   -0.46362E-07   -0.42033E-07  2134   0.199E-03    0.934E-04
RMM:   6    -0.116340731713E+04   -0.37326E-07   -0.16241E-07  1495   0.190E-03    0.832E-04
RMM:   7    -0.116340731718E+04   -0.41313E-07   -0.15050E-07  1443   0.189E-03    0.120E-03
RMM:   8    -0.116340731721E+04   -0.31810E-07   -0.95125E-08  1070   0.188E-03
   1 F= -.11634073E+04 E0= -.11634071E+04  d E =-.116341E+04  mag=    -2.0027
       N       E                     dE             d eps       ncg     rms          rms(c)
DAV:   1    -0.116340746117E+04   -0.14399E-03   -0.12505E-01 12512   0.414E-01    0.107E-01
RMM:   2    -0.116340767840E+04   -0.21723E-03   -0.38263E-03 12233   0.793E-02    0.992E-02
RMM:   3    -0.116340764198E+04    0.36422E-04   -0.15039E-04  7487   0.263E-02    0.663E-02
RMM:   4    -0.116340760916E+04    0.32814E-04   -0.11821E-04  7251   0.131E-02    0.427E-02
RMM:   5    -0.116340760372E+04    0.54392E-05   -0.28012E-05  6953   0.819E-03    0.178E-02
RMM:   6    -0.116340760404E+04   -0.31825E-06   -0.10237E-05  6409   0.466E-03    0.124E-02
RMM:   7    -0.116340760436E+04   -0.32119E-06   -0.44336E-06  5448   0.370E-03    0.841E-03
RMM:   8    -0.116340760466E+04   -0.29233E-06   -0.25913E-06  4691   0.258E-03
   2 F= -.11634076E+04 E0= -.11634073E+04  d E =-.287449E-03  mag=    -2.0026
       N       E                     dE             d eps       ncg     rms          rms(c)
DAV:   1    -0.116340783404E+04   -0.22968E-03   -0.24730E-02 12208   0.182E-01    0.540E-02
RMM:   2    -0.116340785795E+04   -0.23904E-04   -0.85793E-04 11753   0.375E-02    0.565E-02
RMM:   3    -0.116340784571E+04    0.12241E-04   -0.35489E-05  6579   0.122E-02    0.389E-02
RMM:   4    -0.116340783386E+04    0.11843E-04   -0.38627E-05  6580   0.717E-03    0.218E-02
RMM:   5    -0.116340783129E+04    0.25736E-05   -0.84816E-06  5762   0.464E-03    0.111E-02
RMM:   6    -0.116340783127E+04    0.18452E-07   -0.28972E-06  4470   0.268E-03    0.744E-03
RMM:   7    -0.116340783130E+04   -0.24214E-07   -0.99979E-07  2842   0.237E-03    0.462E-03
RMM:   8    -0.116340783129E+04    0.11642E-08   -0.16293E-07  1910   0.192E-03
   3 F= -.11634078E+04 E0= -.11634076E+04  d E =-.226638E-03  mag=    -2.0027
