       N       E                     dE             d eps       ncg     rms          rms(c)
DAV:   1     0.120044369412E+05    0.12004E+05   -0.42373E+05 12352   0.132E+03
DAV:   2     0.685446673529E+03   -0.11319E+05   -0.10110E+05 12304   0.377E+02
DAV:   3    -0.135280754264E+04   -0.20383E+04   -0.19629E+04 13224   0.167E+02
DAV:   4    -0.149146301773E+04   -0.13866E+03   -0.13626E+03 16160   0.458E+01
DAV:   5    -0.150055363722E+04   -0.90906E+01   -0.90427E+01 22160   0.108E+01    0.185E+02
RMM:   6    -0.116198996859E+04    0.33856E+03   -0.16164E+03 12535   0.355E+01    0.124E+02
RMM:   7    -0.114594752931E+04    0.16042E+02   -0.71768E+01 12787   0.118E+01    0.751E+01
RMM:   8    -0.114916289879E+04   -0.32154E+01   -0.30821E+01 13548   0.633E+00    0.538E+01
RMM:   9    -0.115409876319E+04   -0.49359E+01   -0.18388E+01 13741   0.404E+00    0.432E+01
RMM:  10    -0.115384659223E+04    0.25217E+00   -0.11669E+01 12671   0.421E+00    0.253E+01
RMM:  11    -0.115315823223E+04    0.68836E+00   -0.32301E+00 13618   0.212E+00    0.131E+01
RMM:  12    -0.115503023508E+04   -0.18720E+01   -0.10738E+00 15212   0.111E+00    0.106E+01
RMM:  13    -0.115631477685E+04   -0.12845E+01   -0.75604E-01 14196   0.935E-01    0.831E+00
RMM:  14    -0.115693526852E+04   -0.62049E+00   -0.60078E-01 13775   0.783E-01    0.382E+00
RMM:  15    -0.115708932587E+04   -0.15406E+00   -0.30564E-01 14026   0.603E-01    0.393E+00
RMM:  16    -0.115715659217E+04   -0.67266E-01   -0.97715E-02 15022   0.272E-01    0.219E+00
RMM:  17    -0.115721433686E+04   -0.57745E-01   -0.61279E-02 13991   0.259E-01    0.225E+00
RMM:  18    -0.115723928056E+04   -0.24944E-01   -0.36548E-02 14115   0.194E-01    0.849E-01
RMM:  19    -0.115724742937E+04   -0.81488E-02   -0.16320E-02 14543   0.128E-01    0.315E-01
RMM:  20    -0.115725058941E+04   -0.31600E-02   -0.72333E-03 13801   0.848E-02    0.187E-01
RMM:  21    -0.115725223634E+04   -0.16469E-02   -0.25295E-03 11988   0.478E-02    0.195E-01
RMM:  22    -0.115725376412E+04   -0.15278E-02   -0.16404E-03 11192   0.366E-02    0.202E-01
RMM:  23    -0.115725618034E+04   -0.24162E-02   -0.26771E-03 11020   0.485E-02    0.146E-01
RMM:  24    -0.115725798169E+04   -0.18014E-02   -0.24504E-03 10210   0.429E-02    0.114E-01
RMM:  25    -0.115725981893E+04   -0.18372E-02   -0.28648E-03 10217   0.449E-02    0.895E-02
RMM:  26    -0.115726249275E+04   -0.26738E-02   -0.84154E-03 10652   0.754E-02    0.640E-02
RMM:  27    -0.115726414614E+04   -0.16534E-02   -0.94111E-03 10905   0.806E-02    0.652E-02
RMM:  28    -0.115726443241E+04   -0.28627E-03   -0.13247E-03  9720   0.257E-02    0.497E-02
RMM:  29    -0.115726491949E+04   -0.48708E-03   -0.17895E-03  9382   0.369E-02    0.367E-02
RMM:  30    -0.115726521892E+04   -0.29943E-03   -0.17157E-03  9282   0.327E-02    0.294E-02
RMM:  31    -0.115726536326E+04   -0.14434E-03   -0.83851E-04  8830   0.221E-02    0.237E-02
RMM:  32    -0.115726542479E+04   -0.61530E-04   -0.45904E-04  8274   0.169E-02
   1 F= -.11572654E+04 E0= -.11572651E+04  d E =-.115727E+04  mag=     7.9987
       N       E                     dE             d eps       ncg     rms          rms(c)
DAV:   1    -0.108986589036E+04    0.67399E+02   -0.31703E+03 13584   0.472E+01    0.505E+01
RMM:   2    -0.116660573193E+04   -0.76740E+02   -0.52802E+02 15942   0.180E+01    0.829E+01
RMM:   3    -0.116140490599E+04    0.52008E+01   -0.75156E+01 14014   0.742E+00    0.366E+01
RMM:   4    -0.115306619807E+04    0.83387E+01   -0.29517E+01 13476   0.541E+00    0.328E+01
RMM:   5    -0.115396450693E+04   -0.89831E+00   -0.93195E+00 13765   0.251E+00    0.215E+01
RMM:   6    -0.115387825246E+04    0.86254E-01   -0.20576E+00 14366   0.117E+00    0.173E+01
RMM:   7    -0.115387476400E+04    0.34885E-02   -0.10840E+00 13424   0.992E-01    0.817E+00
RMM:   8    -0.115398239049E+04   -0.10763E+00   -0.45926E-01 13979   0.530E-01    0.510E+00
RMM:   9    -0.115396161022E+04    0.20780E-01   -0.81424E-02 15394   0.281E-01    0.419E+00
RMM:  10    -0.115394480068E+04    0.16810E-01   -0.67320E-02 15940   0.206E-01    0.192E+00
RMM:  11    -0.115393406306E+04    0.10738E-01   -0.58878E-02 14265   0.202E-01    0.106E+00
RMM:  12    -0.115393629868E+04   -0.22356E-02   -0.15551E-02 15926   0.949E-02    0.755E-01
RMM:  13    -0.115394006266E+04   -0.37640E-02   -0.12715E-02 14692   0.947E-02    0.294E-01
RMM:  14    -0.115394321751E+04   -0.31548E-02   -0.72124E-03 13849   0.780E-02    0.176E-01
RMM:  15    -0.115394548858E+04   -0.22711E-02   -0.41052E-03 13018   0.559E-02    0.153E-01
RMM:  16    -0.115394696432E+04   -0.14757E-02   -0.25947E-03 11781   0.448E-02    0.139E-01
RMM:  17    -0.115394764221E+04   -0.67789E-03   -0.14581E-03 10147   0.322E-02    0.115E-01
RMM:  18    -0.115394817302E+04   -0.53080E-03   -0.11987E-03  9402   0.310E-02    0.681E-02
RMM:  19    -0.115394841310E+04   -0.24008E-03   -0.70801E-04  8823   0.233E-02    0.515E-02
RMM:  20    -0.115394852099E+04   -0.10789E-03   -0.30203E-04  8040   0.145E-02    0.274E-02
RMM:  21    -0.115394859070E+04   -0.69718E-04   -0.15952E-04  7693   0.122E-02
   2 F= -.11539486E+04 E0= -.11539486E+04  d E =0.331683E+01  mag=     7.9976
       N       E                     dE             d eps       ncg     rms          rms(c)
DAV:   1    -0.112313432990E+04    0.30814E+02   -0.15419E+03 12416   0.306E+01    0.310E+01
RMM:   2    -0.115521231033E+04   -0.32078E+02   -0.11255E+02 12533   0.101E+01    0.228E+01
RMM:   3    -0.115717067203E+04   -0.19584E+01   -0.66142E+00 12611   0.294E+00    0.191E+01
RMM:   4    -0.115711175487E+04    0.58917E-01   -0.81567E-01 16678   0.824E-01    0.157E+01
RMM:   5    -0.115703929895E+04    0.72456E-01   -0.91379E-01 13475   0.857E-01    0.487E+00
RMM:   6    -0.115707207762E+04   -0.32779E-01   -0.17625E-01 14007   0.482E-01    0.157E+00
RMM:   7    -0.115708142060E+04   -0.93430E-02   -0.34809E-02 18848   0.153E-01    0.644E-01
RMM:   8    -0.115708710843E+04   -0.56878E-02   -0.12356E-02 18242   0.956E-02    0.440E-01
RMM:   9    -0.115709625258E+04   -0.91442E-02   -0.98698E-03 15700   0.109E-01    0.240E-01
RMM:  10    -0.115710019513E+04   -0.39426E-02   -0.48582E-03 15249   0.598E-02    0.211E-01
RMM:  11    -0.115710505366E+04   -0.48585E-02   -0.32838E-03 13911   0.587E-02    0.180E-01
RMM:  12    -0.115711333198E+04   -0.82783E-02   -0.98653E-03 11880   0.115E-01    0.134E-01
RMM:  13    -0.115711654311E+04   -0.32111E-02   -0.50943E-03 11688   0.582E-02    0.120E-01
RMM:  14    -0.115711949503E+04   -0.29519E-02   -0.23931E-03 10595   0.433E-02    0.110E-01
RMM:  15    -0.115712367837E+04   -0.41833E-02   -0.44441E-03 10527   0.666E-02    0.985E-02
RMM:  16    -0.115712763076E+04   -0.39524E-02   -0.63948E-03 10608   0.760E-02    0.880E-02
RMM:  17    -0.115713124760E+04   -0.36168E-02   -0.78292E-03 10737   0.874E-02    0.753E-02
RMM:  18    -0.115713352836E+04   -0.22808E-02   -0.55106E-03 10336   0.679E-02    0.612E-02
RMM:  19    -0.115713522346E+04   -0.16951E-02   -0.68546E-03 10527   0.841E-02    0.514E-02
RMM:  20    -0.115713615519E+04   -0.93173E-03   -0.21768E-03  9829   0.380E-02    0.297E-02
RMM:  21    -0.115713639137E+04   -0.23618E-03   -0.28401E-03  9720   0.556E-02    0.406E-02
RMM:  22    -0.115713679287E+04   -0.40150E-03   -0.52337E-04  8702   0.216E-02    0.138E-02
RMM:  23    -0.115713681851E+04   -0.25643E-04   -0.74859E-04  8764   0.287E-02
   3 F= -.11571368E+04 E0= -.11571368E+04  d E =-.318823E+01  mag=     8.0000
       N       E                     dE             d eps       ncg     rms          rms(c)
DAV:   1    -0.115721199642E+04   -0.75204E-01   -0.34786E+02 12384   0.184E+01    0.856E+00
RMM:   2    -0.115843753483E+04   -0.12255E+01   -0.13170E+01 12391   0.438E+00    0.810E+00
RMM:   3    -0.115854025411E+04   -0.10272E+00   -0.84456E-01 13077   0.153E+00    0.574E+00
RMM:   4    -0.115852102622E+04    0.19228E-01   -0.34118E-01 13032   0.600E-01    0.310E+00
RMM:   5    -0.115849394120E+04    0.27085E-01   -0.91157E-02 12838   0.371E-01    0.881E-01
RMM:   6    -0.115849298038E+04    0.96081E-03   -0.19688E-02 15246   0.122E-01    0.410E-01
RMM:   7    -0.115849285083E+04    0.12956E-03   -0.39855E-03 14566   0.514E-02    0.279E-01
RMM:   8    -0.115849408113E+04   -0.12303E-02   -0.27243E-03 12218   0.528E-02    0.123E-01
RMM:   9    -0.115849445920E+04   -0.37807E-03   -0.53980E-04  9380   0.250E-02    0.849E-02
RMM:  10    -0.115849491744E+04   -0.45824E-03   -0.31268E-04  8713   0.185E-02    0.782E-02
RMM:  11    -0.115849549194E+04   -0.57450E-03   -0.31488E-04  8574   0.191E-02    0.641E-02
RMM:  12    -0.115849628352E+04   -0.79158E-03   -0.65871E-04  8800   0.272E-02    0.524E-02
RMM:  13    -0.115849697100E+04   -0.68749E-03   -0.95718E-04  8987   0.303E-02    0.432E-02
RMM:  14    -0.115849746054E+04   -0.48954E-03   -0.10266E-03  8944   0.306E-02    0.282E-02
RMM:  15    -0.115849771485E+04   -0.25430E-03   -0.67422E-04  8643   0.230E-02    0.226E-02
RMM:  16    -0.115849783027E+04   -0.11543E-03   -0.30158E-04  8064   0.157E-02    0.161E-02
RMM:  17    -0.115849788824E+04   -0.57967E-04   -0.28488E-04  8068   0.157E-02
   4 F= -.11584979E+04 E0= -.11584979E+04  d E =-.136107E+01  mag=     8.0000
       N       E                     dE             d eps       ncg     rms          rms(c)
DAV:   1    -0.115876454080E+04   -0.26671E+00   -0.53516E+01 12912   0.644E+00    0.439E+00
RMM:   2    -0.115898977848E+04   -0.22524E+00   -0.14077E+00 12456   0.134E+00    0.294E+00
RMM:   3    -0.115900840216E+04   -0.18624E-01   -0.84873E-02 12487   0.457E-01    0.129E+00
RMM:   4    -0.115899311494E+04    0.15287E-01   -0.46439E-02 13064   0.217E-01    0.598E-01
RMM:   5    -0.115898936136E+04    0.37536E-02   -0.10775E-02 12401   0.121E-01    0.306E-01
RMM:   6    -0.115898946102E+04   -0.99666E-04   -0.35304E-03 14084   0.492E-02    0.223E-01
RMM:   7    -0.115898950870E+04   -0.47682E-04   -0.54480E-04 11206   0.214E-02    0.127E-01
RMM:   8    -0.115898968079E+04   -0.17209E-03   -0.31306E-04  9055   0.208E-02    0.442E-02
RMM:   9    -0.115898973315E+04   -0.52352E-04   -0.10950E-04  8124   0.124E-02
   5 F= -.11589897E+04 E0= -.11589897E+04  d E =-.491845E+00  mag=     8.0000
       N       E                     dE             d eps       ncg     rms          rms(c)
DAV:   1    -0.115904444917E+04   -0.54768E-01   -0.46392E+01 12752   0.543E+00    0.436E+00
RMM:   2    -0.115931287305E+04   -0.26842E+00   -0.10463E+00 12609   0.108E+00    0.278E+00
RMM:   3    -0.115934925289E+04   -0.36380E-01   -0.61313E-02 12544   0.360E-01    0.118E+00
RMM:   4    -0.115934767091E+04    0.15820E-02   -0.17785E-02 13290   0.129E-01    0.604E-01
RMM:   5    -0.115934775305E+04   -0.82135E-04   -0.60507E-03 12097   0.761E-02    0.195E-01
RMM:   6    -0.115934811352E+04   -0.36047E-03   -0.95252E-04 10904   0.316E-02    0.118E-01
RMM:   7    -0.115934832806E+04   -0.21454E-03   -0.24384E-04  8392   0.169E-02    0.741E-02
RMM:   8    -0.115934864174E+04   -0.31368E-03   -0.24356E-04  8191   0.160E-02    0.500E-02
RMM:   9    -0.115934882881E+04   -0.18706E-03   -0.12979E-04  7721   0.122E-02    0.423E-02
RMM:  10    -0.115934895257E+04   -0.12376E-03   -0.78719E-05  7486   0.927E-03    0.360E-02
RMM:  11    -0.115934920153E+04   -0.24896E-03   -0.20896E-04  7738   0.156E-02    0.291E-02
RMM:  12    -0.115934943897E+04   -0.23744E-03   -0.53811E-04  8384   0.241E-02    0.175E-02
RMM:  13    -0.115934950859E+04   -0.69616E-04   -0.18052E-04  7322   0.126E-02
   6 F= -.11593495E+04 E0= -.11593495E+04  d E =-.359775E+00  mag=     8.0000
       N       E                     dE             d eps       ncg     rms          rms(c)
DAV:   1    -0.115917085039E+04    0.17859E+00   -0.66627E+01 12640   0.605E+00    0.553E+00
RMM:   2    -0.115965035303E+04   -0.47950E+00   -0.14752E+00 12855   0.120E+00    0.369E+00
RMM:   3    -0.115971480607E+04   -0.64453E-01   -0.85193E-02 12722   0.388E-01    0.142E+00
RMM:   4    -0.115971302043E+04    0.17856E-02   -0.20140E-02 13630   0.135E-01    0.722E-01
RMM:   5    -0.115971327955E+04   -0.25912E-03   -0.86604E-03 12389   0.823E-02    0.271E-01
RMM:   6    -0.115971382675E+04   -0.54720E-03   -0.16137E-03 11482   0.407E-02    0.142E-01
RMM:   7    -0.115971411652E+04   -0.28976E-03   -0.39307E-04  8719   0.188E-02    0.881E-02
RMM:   8    -0.115971445177E+04   -0.33525E-03   -0.29448E-04  8247   0.173E-02    0.569E-02
RMM:   9    -0.115971466719E+04   -0.21542E-03   -0.17470E-04  7791   0.141E-02    0.450E-02
RMM:  10    -0.115971478082E+04   -0.11362E-03   -0.88074E-05  7401   0.993E-03    0.374E-02
RMM:  11    -0.115971502187E+04   -0.24105E-03   -0.20708E-04  7710   0.163E-02    0.305E-02
RMM:  12    -0.115971520369E+04   -0.18181E-03   -0.34711E-04  8031   0.192E-02    0.179E-02
RMM:  13    -0.115971526680E+04   -0.63119E-04   -0.16758E-04  7319   0.124E-02
   7 F= -.11597153E+04 E0= -.11597153E+04  d E =-.365758E+00  mag=     8.0000
       N       E                     dE             d eps       ncg     rms          rms(c)
DAV:   1    -0.115770854793E+04    0.20067E+01   -0.12220E+02 12496   0.883E+00    0.800E+00
RMM:   2    -0.115976765784E+04   -0.20591E+01   -0.35528E+00 12599   0.205E+00    0.685E+00
RMM:   3    -0.115989307179E+04   -0.12541E+00   -0.22815E-01 12536   0.757E-01    0.262E+00
RMM:   4    -0.115989039782E+04    0.26740E-02   -0.62867E-02 14130   0.263E-01    0.120E+00
RMM:   5    -0.115988961904E+04    0.77878E-03   -0.22446E-02 13671   0.137E-01    0.772E-01
RMM:   6    -0.115989072671E+04   -0.11077E-02   -0.52509E-03 13417   0.630E-02    0.263E-01
RMM:   7    -0.115989105405E+04   -0.32735E-03   -0.10866E-03 11294   0.314E-02    0.197E-01
RMM:   8    -0.115989154190E+04   -0.48785E-03   -0.62544E-04  9731   0.256E-02    0.840E-02
RMM:   9    -0.115989184177E+04   -0.29987E-03   -0.36071E-04  8507   0.189E-02    0.457E-02
RMM:  10    -0.115989199290E+04   -0.15113E-03   -0.15293E-04  7766   0.132E-02    0.395E-02
RMM:  11    -0.115989224272E+04   -0.24982E-03   -0.25843E-04  8004   0.180E-02    0.274E-02
RMM:  12    -0.115989238518E+04   -0.14246E-03   -0.24768E-04  7863   0.165E-02    0.176E-02
RMM:  13    -0.115989244179E+04   -0.56609E-04   -0.12964E-04  7376   0.112E-02
   8 F= -.11598924E+04 E0= -.11598924E+04  d E =-.177175E+00  mag=     8.0000
       N       E                     dE             d eps       ncg     rms          rms(c)
DAV:   1    -0.115988769676E+04    0.46884E-02   -0.42713E+00 13200   0.217E+00    0.109E+00
RMM:   2    -0.115990715408E+04   -0.19457E-01   -0.10058E-01 12617   0.411E-01    0.647E-01
RMM:   3    -0.115990945708E+04   -0.23030E-02   -0.63475E-03 12987   0.134E-01    0.275E-01
RMM:   4    -0.115990910686E+04    0.35022E-03   -0.15497E-03 12591   0.446E-02    0.145E-01
RMM:   5    -0.115990903848E+04    0.68383E-04   -0.70964E-04 10805   0.290E-02    0.455E-02
RMM:   6    -0.115990903961E+04   -0.11292E-05   -0.67827E-05  7442   0.138E-02    0.319E-02
RMM:   7    -0.115990904288E+04   -0.32741E-05   -0.35969E-05  7242   0.796E-03    0.228E-02
RMM:   8    -0.115990904772E+04   -0.48424E-05   -0.20590E-05  7136   0.755E-03
   9 F= -.11599090E+04 E0= -.11599090E+04  d E =-.166059E-01  mag=     8.0000
       N       E                     dE             d eps       ncg     rms          rms(c)
DAV:   1    -0.115985514735E+04    0.53896E-01   -0.13554E+01 12640   0.306E+00    0.244E+00
RMM:   2    -0.115992383638E+04   -0.68689E-01   -0.33987E-01 12558   0.651E-01    0.154E+00
RMM:   3    -0.115993241639E+04   -0.85800E-02   -0.22675E-02 12835   0.182E-01    0.955E-01
RMM:   4    -0.115993203097E+04    0.38542E-03   -0.55402E-03 12310   0.728E-02    0.363E-01
RMM:   5    -0.115993219124E+04   -0.16027E-03   -0.14577E-03 10818   0.355E-02    0.912E-02
RMM:   6    -0.115993221789E+04   -0.26646E-04   -0.19066E-04  7804   0.152E-02    0.800E-02
RMM:   7    -0.115993225558E+04   -0.37692E-04   -0.76317E-05  7316   0.987E-03    0.419E-02
RMM:   8    -0.115993232013E+04   -0.64550E-04   -0.75121E-05  7266   0.105E-02
  10 F= -.11599323E+04 E0= -.11599323E+04  d E =-.232724E-01  mag=     8.0000
       N       E                     dE             d eps       ncg     rms          rms(c)
DAV:   1    -0.115991294280E+04    0.19313E-01   -0.81460E+00 12672   0.305E+00    0.146E+00
RMM:   2    -0.115995076718E+04   -0.37824E-01   -0.18141E-01 13047   0.540E-01    0.839E-01
RMM:   3    -0.115995547246E+04   -0.47053E-02   -0.96216E-03 13193   0.169E-01    0.348E-01
RMM:   4    -0.115995514392E+04    0.32854E-03   -0.20738E-03 14355   0.538E-02    0.188E-01
RMM:   5    -0.115995508492E+04    0.59003E-04   -0.11471E-03 11681   0.320E-02    0.438E-02
RMM:   6    -0.115995508999E+04   -0.50732E-05   -0.99751E-05  7489   0.163E-02    0.282E-02
RMM:   7    -0.115995509611E+04   -0.61169E-05   -0.55401E-05  7290   0.875E-03    0.211E-02
RMM:   8    -0.115995510379E+04   -0.76814E-05   -0.31632E-05  7140   0.826E-03
  11 F= -.11599551E+04 E0= -.11599551E+04  d E =-.227837E-01  mag=     8.0000
       N       E                     dE             d eps       ncg     rms          rms(c)
DAV:   1    -0.115995798979E+04   -0.28937E-02   -0.10715E+00 12896   0.116E+00    0.387E-01
RMM:   2    -0.115996100137E+04   -0.30116E-02   -0.27502E-02 12616   0.210E-01    0.270E-01
RMM:   3    -0.115996113307E+04   -0.13170E-03   -0.15462E-03 12601   0.698E-02    0.152E-01
RMM:   4    -0.115996100547E+04    0.12760E-03   -0.55095E-04 10871   0.262E-02    0.724E-02
RMM:   5    -0.115996099319E+04    0.12275E-04   -0.13511E-04  8005   0.175E-02    0.273E-02
RMM:   6    -0.115996099801E+04   -0.48152E-05   -0.37663E-05  7177   0.958E-03    0.201E-02
RMM:   7    -0.115996100246E+04   -0.44543E-05   -0.20448E-05  6931   0.683E-03    0.170E-02
RMM:   8    -0.115996100957E+04   -0.71045E-05   -0.16982E-05  6892   0.593E-03
  12 F= -.11599610E+04 E0= -.11599610E+04  d E =-.590578E-02  mag=     8.0000
       N       E                     dE             d eps       ncg     rms          rms(c)
DAV:   1    -0.115990785818E+04    0.53144E-01   -0.24398E+01 12544   0.549E+00    0.167E+00
RMM:   2    -0.115998143121E+04   -0.73573E-01   -0.57414E-01 12994   0.976E-01    0.973E-01
RMM:   3    -0.115998649097E+04   -0.50598E-02   -0.32901E-02 13621   0.293E-01    0.492E-01
RMM:   4    -0.115998547182E+04    0.10192E-02   -0.56849E-03 16769   0.862E-02    0.298E-01
RMM:   5    -0.115998511542E+04    0.35640E-03   -0.36515E-03 13624   0.519E-02    0.730E-02
RMM:   6    -0.115998512873E+04   -0.13318E-04   -0.34468E-04  9405   0.262E-02    0.424E-02
RMM:   7    -0.115998514616E+04   -0.17430E-04   -0.14273E-04  7863   0.126E-02    0.287E-02
RMM:   8    -0.115998516744E+04   -0.21273E-04   -0.10246E-04  7708   0.122E-02
  13 F= -.11599852E+04 E0= -.11599852E+04  d E =-.241579E-01  mag=     8.0000
       N       E                     dE             d eps       ncg     rms          rms(c)
DAV:   1    -0.115997430183E+04    0.10844E-01   -0.70079E+00 12688   0.297E+00    0.784E-01
RMM:   2    -0.115999370739E+04   -0.19406E-01   -0.16836E-01 13009   0.523E-01    0.462E-01
RMM:   3    -0.115999454665E+04   -0.83926E-03   -0.92197E-03 13570   0.158E-01    0.255E-01
RMM:   4    -0.115999422534E+04    0.32131E-03   -0.17981E-03 15105   0.486E-02    0.149E-01
RMM:   5    -0.115999415656E+04    0.68774E-04   -0.97527E-04 12163   0.294E-02    0.436E-02
RMM:   6    -0.115999416990E+04   -0.13339E-04   -0.10825E-04  7530   0.158E-02    0.261E-02
RMM:   7    -0.115999418579E+04   -0.15887E-04   -0.67533E-05  7334   0.962E-03    0.224E-02
RMM:   8    -0.115999419956E+04   -0.13775E-04   -0.42300E-05  7171   0.944E-03
  14 F= -.11599942E+04 E0= -.11599942E+04  d E =-.903212E-02  mag=     8.0000
       N       E                     dE             d eps       ncg     rms          rms(c)
DAV:   1    -0.115999341723E+04    0.76855E-03   -0.23039E+00 12712   0.170E+00    0.351E-01
RMM:   2    -0.115999882294E+04   -0.54057E-02   -0.55927E-02 12973   0.296E-01    0.219E-01
RMM:   3    -0.115999885139E+04   -0.28449E-04   -0.29862E-03 13101   0.907E-02    0.140E-01
RMM:   4    -0.115999872375E+04    0.12764E-03   -0.62004E-04 11293   0.296E-02    0.749E-02
RMM:   5    -0.115999872449E+04   -0.73730E-06   -0.24399E-04  8029   0.194E-02    0.221E-02
RMM:   6    -0.115999873662E+04   -0.12134E-04   -0.51497E-05  7206   0.118E-02    0.166E-02
RMM:   7    -0.115999874894E+04   -0.12313E-04   -0.35782E-05  7022   0.810E-03    0.146E-02
RMM:   8    -0.115999876178E+04   -0.12846E-04   -0.23857E-05  6853   0.698E-03
  15 F= -.11599988E+04 E0= -.11599988E+04  d E =-.456222E-02  mag=     8.0000
       N       E                     dE             d eps       ncg     rms          rms(c)
DAV:   1    -0.115999646471E+04    0.22842E-02   -0.31575E+00 12672   0.197E+00    0.383E-01
RMM:   2    -0.116000367789E+04   -0.72132E-02   -0.74960E-02 13066   0.338E-01    0.235E-01
RMM:   3    -0.116000365701E+04    0.20879E-04   -0.37540E-03 13143   0.102E-01    0.152E-01
RMM:   4    -0.116000348737E+04    0.16965E-03   -0.82534E-04 12184   0.335E-02    0.786E-02
RMM:   5    -0.116000349336E+04   -0.59989E-05   -0.26889E-04  8231   0.200E-02    0.239E-02
RMM:   6    -0.116000350554E+04   -0.12171E-04   -0.54168E-05  7217   0.121E-02    0.164E-02
RMM:   7    -0.116000351810E+04   -0.12561E-04   -0.38965E-05  7057   0.830E-03    0.141E-02
RMM:   8    -0.116000353049E+04   -0.12392E-04   -0.25239E-05  6846   0.711E-03
  16 F= -.11600035E+04 E0= -.11600035E+04  d E =-.476870E-02  mag=     8.0000
       N       E                     dE             d eps       ncg     rms          rms(c)
DAV:   1    -0.116000182212E+04    0.16960E-02   -0.23913E+00 12704   0.171E+00    0.345E-01
RMM:   2    -0.116000738416E+04   -0.55620E-02   -0.56551E-02 13092   0.292E-01    0.210E-01
RMM:   3    -0.116000739217E+04   -0.80099E-05   -0.28381E-03 12882   0.873E-02    0.132E-01
RMM:   4    -0.116000726677E+04    0.12540E-03   -0.59208E-04 10841   0.289E-02    0.694E-02
RMM:   5    -0.116000727186E+04   -0.50933E-05   -0.21113E-04  7704   0.187E-02    0.218E-02
RMM:   6    -0.116000728406E+04   -0.12195E-04   -0.48653E-05  7182   0.115E-02    0.150E-02
RMM:   7    -0.116000729635E+04   -0.12290E-04   -0.34103E-05  7010   0.802E-03    0.128E-02
RMM:   8    -0.116000730791E+04   -0.11560E-04   -0.22332E-05  6804   0.676E-03
  17 F= -.11600073E+04 E0= -.11600073E+04  d E =-.377742E-02  mag=     8.0000
       N       E                     dE             d eps       ncg     rms          rms(c)
DAV:   1    -0.116000708918E+04    0.20716E-03   -0.15801E+00 12680   0.136E+00    0.255E-01
RMM:   2    -0.116001051451E+04   -0.34253E-02   -0.37184E-02 13033   0.234E-01    0.166E-01
RMM:   3    -0.116001047313E+04    0.41386E-04   -0.19351E-03 12312   0.700E-02    0.109E-01
RMM:   4    -0.116001038154E+04    0.91584E-04   -0.42645E-04  9415   0.245E-02    0.565E-02
RMM:   5    -0.116001039110E+04   -0.95561E-05   -0.11535E-04  7373   0.154E-02    0.175E-02
RMM:   6    -0.116001040131E+04   -0.10206E-04   -0.35454E-05  7126   0.963E-03    0.149E-02
RMM:   7    -0.116001040800E+04   -0.66891E-05   -0.21740E-05  6796   0.668E-03    0.124E-02
RMM:   8    -0.116001041875E+04   -0.10750E-04   -0.18014E-05  6733   0.616E-03
  18 F= -.11600104E+04 E0= -.11600104E+04  d E =-.311084E-02  mag=     8.0000
       N       E                     dE             d eps       ncg     rms          rms(c)
DAV:   1    -0.116001056807E+04   -0.16007E-03   -0.12975E+00 12648   0.123E+00    0.221E-01
RMM:   2    -0.116001334349E+04   -0.27754E-02   -0.30216E-02 12935   0.210E-01    0.143E-01
RMM:   3    -0.116001331012E+04    0.33367E-04   -0.15802E-03 11836   0.642E-02    0.947E-02
RMM:   4    -0.116001324036E+04    0.69767E-04   -0.34784E-04  8682   0.225E-02    0.471E-02
RMM:   5    -0.116001325208E+04   -0.11720E-04   -0.87015E-05  7292   0.136E-02    0.152E-02
RMM:   6    -0.116001326201E+04   -0.99351E-05   -0.30556E-05  7056   0.877E-03    0.132E-02
RMM:   7    -0.116001326775E+04   -0.57390E-05   -0.18408E-05  6743   0.604E-03    0.113E-02
RMM:   8    -0.116001327796E+04   -0.10208E-04   -0.16143E-05  6653   0.592E-03
  19 F= -.11600133E+04 E0= -.11600133E+04  d E =-.285921E-02  mag=     8.0000
       N       E                     dE             d eps       ncg     rms          rms(c)
DAV:   1    -0.116001371521E+04   -0.44745E-03   -0.93114E-01 12744   0.102E+00    0.197E-01
RMM:   2    -0.116001572486E+04   -0.20097E-02   -0.21684E-02 12932   0.176E-01    0.127E-01
RMM:   3    -0.116001569951E+04    0.25347E-04   -0.10912E-03 10917   0.530E-02    0.843E-02
RMM:   4    -0.116001564634E+04    0.53172E-04   -0.20858E-04  7715   0.185E-02    0.466E-02
RMM:   5    -0.116001565552E+04   -0.91864E-05   -0.78841E-05  7258   0.118E-02    0.140E-02
RMM:   6    -0.116001566321E+04   -0.76885E-05   -0.24321E-05  6984   0.809E-03    0.112E-02
RMM:   7    -0.116001566853E+04   -0.53170E-05   -0.16050E-05  6618   0.512E-03    0.964E-03
RMM:   8    -0.116001567593E+04   -0.73964E-05   -0.11687E-05  6224   0.517E-03
  20 F= -.11600157E+04 E0= -.11600157E+04  d E =-.239797E-02  mag=     8.0000
       N       E                     dE             d eps       ncg     rms          rms(c)
DAV:   1    -0.116001587110E+04   -0.20257E-03   -0.11758E+00 12648   0.117E+00    0.206E-01
RMM:   2    -0.116001838158E+04   -0.25105E-02   -0.27332E-02 12926   0.200E-01    0.134E-01
RMM:   3    -0.116001835630E+04    0.25276E-04   -0.14468E-03 11585   0.619E-02    0.885E-02
RMM:   4    -0.116001829620E+04    0.60103E-04   -0.32353E-04  8377   0.218E-02    0.407E-02
RMM:   5    -0.116001830526E+04   -0.90582E-05   -0.72995E-05  7242   0.128E-02    0.140E-02
RMM:   6    -0.116001831339E+04   -0.81344E-05   -0.27516E-05  7017   0.822E-03    0.113E-02
RMM:   7    -0.116001831814E+04   -0.47448E-05   -0.16738E-05  6640   0.565E-03    0.988E-03
RMM:   8    -0.116001832587E+04   -0.77346E-05   -0.13521E-05  6553   0.552E-03
  21 F= -.11600183E+04 E0= -.11600183E+04  d E =-.264995E-02  mag=     8.0000
       N       E                     dE             d eps       ncg     rms          rms(c)
DAV:   1    -0.116001870502E+04   -0.38688E-03   -0.95354E-01 12656   0.105E+00    0.186E-01
RMM:   2    -0.116002074766E+04   -0.20426E-02   -0.22133E-02 12950   0.179E-01    0.121E-01
RMM:   3    -0.116002072459E+04    0.23066E-04   -0.11481E-03 10985   0.549E-02    0.795E-02
RMM:   4    -0.116002067602E+04    0.48570E-04   -0.24950E-04  7884   0.196E-02    0.379E-02
RMM:   5    -0.116002068590E+04   -0.98790E-05   -0.64275E-05  7200   0.117E-02    0.128E-02
RMM:   6    -0.116002069350E+04   -0.76018E-05   -0.24719E-05  6955   0.775E-03    0.107E-02
RMM:   7    -0.116002069781E+04   -0.43096E-05   -0.15172E-05  6598   0.523E-03    0.947E-03
RMM:   8    -0.116002070483E+04   -0.70165E-05   -0.11997E-05  6436   0.527E-03
  22 F= -.11600207E+04 E0= -.11600207E+04  d E =-.237896E-02  mag=     8.0000
       N       E                     dE             d eps       ncg     rms          rms(c)
DAV:   1    -0.116002133041E+04   -0.63260E-03   -0.67296E-01 12736   0.882E-01    0.162E-01
RMM:   2    -0.116002278365E+04   -0.14532E-02   -0.15637E-02 12921   0.150E-01    0.106E-01
RMM:   3    -0.116002276759E+04    0.16065E-04   -0.79624E-04 10018   0.462E-02    0.692E-02
RMM:   4    -0.116002273356E+04    0.34029E-04   -0.16984E-04  7508   0.168E-02    0.356E-02
RMM:   5    -0.116002274251E+04   -0.89471E-05   -0.53006E-05  7131   0.103E-02    0.118E-02
RMM:   6    -0.116002274843E+04   -0.59264E-05   -0.19543E-05  6845   0.707E-03    0.994E-03
RMM:   7    -0.116002275242E+04   -0.39886E-05   -0.12525E-05  6342   0.464E-03    0.835E-03
RMM:   8    -0.116002275894E+04   -0.65167E-05   -0.10334E-05  6222   0.485E-03
  23 F= -.11600228E+04 E0= -.11600228E+04  d E =-.205411E-02  mag=     8.0000
       N       E                     dE             d eps       ncg     rms          rms(c)
DAV:   1    -0.116002340529E+04   -0.65287E-03   -0.68405E-01 12704   0.893E-01    0.160E-01
RMM:   2    -0.116002488236E+04   -0.14771E-02   -0.15953E-02 12936   0.152E-01    0.105E-01
RMM:   3    -0.116002486469E+04    0.17669E-04   -0.81074E-04 10144   0.471E-02    0.689E-02
RMM:   4    -0.116002483187E+04    0.32816E-04   -0.17812E-04  7534   0.172E-02    0.332E-02
RMM:   5    -0.116002484051E+04   -0.86382E-05   -0.50351E-05  7092   0.103E-02    0.117E-02
RMM:   6    -0.116002484658E+04   -0.60741E-05   -0.19650E-05  6828   0.698E-03    0.997E-03
RMM:   7    -0.116002485007E+04   -0.34882E-05   -0.12017E-05  6266   0.461E-03    0.839E-03
RMM:   8    -0.116002485619E+04   -0.61156E-05   -0.99563E-06  6174   0.482E-03
  24 F= -.11600249E+04 E0= -.11600249E+04  d E =-.209725E-02  mag=     8.0000
