       N       E                     dE             d eps       ncg     rms          rms(c)
DAV:   1    -0.115952364102E+04   -0.11595E+04   -0.91571E-06  3864   0.697E-03    0.105E-02
RMM:   2    -0.115952365585E+04   -0.14825E-04   -0.19191E-05  2312   0.531E-03    0.143E-02
RMM:   3    -0.115952365879E+04   -0.29393E-05   -0.44517E-06  1553   0.242E-03    0.125E-02
RMM:   4    -0.115952364971E+04    0.90778E-05   -0.16301E-06  1278   0.220E-03    0.121E-02
RMM:   5    -0.115952364256E+04    0.71487E-05   -0.17383E-06  1325   0.219E-03    0.120E-02
RMM:   6    -0.115952365106E+04   -0.84986E-05   -0.86109E-07  1020   0.204E-03    0.115E-02
RMM:   7    -0.115952371286E+04   -0.61796E-04   -0.97370E-05  2778   0.103E-02    0.102E-02
RMM:   8    -0.115952373092E+04   -0.18063E-04   -0.29114E-05  2049   0.425E-03
   1 F= -.11595237E+04 E0= -.11595237E+04  d E =-.115952E+04  mag=     6.0000
       N       E                     dE             d eps       ncg     rms          rms(c)
DAV:   1    -0.115952390980E+04   -0.19694E-03   -0.18327E-01  6272   0.497E-01    0.149E-01
RMM:   2    -0.115952425865E+04   -0.34885E-03   -0.56966E-03  6176   0.984E-02    0.145E-01
RMM:   3    -0.115952422688E+04    0.31775E-04   -0.25046E-04  4349   0.328E-02    0.960E-02
RMM:   4    -0.115952419261E+04    0.34271E-04   -0.17249E-04  3793   0.161E-02    0.503E-02
RMM:   5    -0.115952419529E+04   -0.26884E-05   -0.52055E-05  3568   0.101E-02    0.203E-02
RMM:   6    -0.115952420261E+04   -0.73139E-05   -0.17146E-05  3335   0.661E-03    0.170E-02
RMM:   7    -0.115952421023E+04   -0.76192E-05   -0.10943E-05  3028   0.421E-03    0.146E-02
RMM:   8    -0.115952422354E+04   -0.13316E-04   -0.11138E-05  3043   0.431E-03
   2 F= -.11595242E+04 E0= -.11595242E+04  d E =-.492624E-03  mag=     6.0000
       N       E                     dE             d eps       ncg     rms          rms(c)
DAV:   1    -0.115952457704E+04   -0.36681E-03   -0.40641E-02  6096   0.233E-01    0.706E-02
RMM:   2    -0.115952463508E+04   -0.58043E-04   -0.13934E-03  6038   0.495E-02    0.730E-02
RMM:   3    -0.115952462396E+04    0.11117E-04   -0.62302E-05  3457   0.165E-02    0.504E-02
RMM:   4    -0.115952462116E+04    0.28002E-05   -0.52779E-05  3492   0.910E-03    0.299E-02
RMM:   5    -0.115952462832E+04   -0.71588E-05   -0.23501E-05  3144   0.603E-03    0.161E-02
RMM:   6    -0.115952463404E+04   -0.57211E-05   -0.72285E-06  2694   0.430E-03    0.134E-02
RMM:   7    -0.115952463972E+04   -0.56788E-05   -0.44930E-06  1926   0.280E-03    0.121E-02
RMM:   8    -0.115952465126E+04   -0.11540E-04   -0.93767E-06  2234   0.344E-03
   3 F= -.11595247E+04 E0= -.11595247E+04  d E =-.427716E-03  mag=     6.0000
