       N       E                     dE             d eps       ncg     rms          rms(c)
DAV:   1     0.117989938893E+05    0.11799E+05   -0.41773E+05  6168   0.130E+03
DAV:   2     0.609961396141E+03   -0.11189E+05   -0.99937E+04  6152   0.372E+02
DAV:   3    -0.137479259805E+04   -0.19848E+04   -0.19153E+04  6616   0.163E+02
DAV:   4    -0.150430146508E+04   -0.12951E+03   -0.12732E+03  8192   0.429E+01
DAV:   5    -0.151198703019E+04   -0.76856E+01   -0.76572E+01 11032   0.905E+00    0.180E+02
RMM:   6    -0.116741496349E+04    0.34457E+03   -0.15674E+03  6246   0.337E+01    0.952E+01
RMM:   7    -0.115480977234E+04    0.12605E+02   -0.60395E+01  6360   0.969E+00    0.561E+01
RMM:   8    -0.116113711637E+04   -0.63273E+01   -0.33627E+01  6274   0.652E+00    0.220E+01
RMM:   9    -0.116138196715E+04   -0.24485E+00   -0.56425E+00  6436   0.220E+00    0.914E+00
RMM:  10    -0.116246708243E+04   -0.10851E+01   -0.25875E+00  6476   0.131E+00    0.836E+00
RMM:  11    -0.116262821546E+04   -0.16113E+00   -0.73816E-01  7052   0.656E-01    0.572E+00
RMM:  12    -0.116373306005E+04   -0.11048E+01   -0.10591E+00  6205   0.856E-01    0.305E+00
RMM:  13    -0.116415724505E+04   -0.42418E+00   -0.39662E-01  6396   0.556E-01    0.203E+00
RMM:  14    -0.116425137907E+04   -0.94134E-01   -0.10656E-01  7274   0.274E-01    0.142E+00
RMM:  15    -0.116433562879E+04   -0.84250E-01   -0.92854E-02  6315   0.262E-01    0.744E-01
RMM:  16    -0.116435189426E+04   -0.16265E-01   -0.36602E-02  6680   0.169E-01    0.376E-01
RMM:  17    -0.116435447644E+04   -0.25822E-02   -0.10081E-02  7866   0.790E-02    0.213E-01
RMM:  18    -0.116435485044E+04   -0.37401E-03   -0.21319E-03  6942   0.349E-02    0.117E-01
RMM:  19    -0.116435497729E+04   -0.12685E-03   -0.72258E-04  5964   0.216E-02    0.548E-02
RMM:  20    -0.116435502251E+04   -0.45222E-04   -0.27589E-04  4684   0.136E-02
   1 F= -.11643550E+04 E0= -.11643549E+04  d E =-.116436E+04  mag=     2.0120
       N       E                     dE             d eps       ncg     rms          rms(c)
DAV:   1    -0.116441924870E+04   -0.64271E-01   -0.91508E+01  7224   0.108E+01    0.304E+00
RMM:   2    -0.116470496868E+04   -0.28572E+00   -0.34839E+00  6144   0.219E+00    0.265E+00
RMM:   3    -0.116469124799E+04    0.13721E-01   -0.17360E-01  6682   0.517E-01    0.173E+00
RMM:   4    -0.116468036585E+04    0.10882E-01   -0.57828E-02  6646   0.218E-01    0.100E+00
RMM:   5    -0.116467680224E+04    0.35636E-02   -0.27497E-02  6638   0.140E-01    0.296E-01
RMM:   6    -0.116467664519E+04    0.15705E-03   -0.29816E-03  7440   0.460E-02    0.225E-01
RMM:   7    -0.116467673178E+04   -0.86594E-04   -0.98369E-04  6947   0.225E-02    0.141E-01
RMM:   8    -0.116467702958E+04   -0.29780E-03   -0.91797E-04  6029   0.249E-02    0.106E-01
RMM:   9    -0.116467705960E+04   -0.30028E-04   -0.28115E-04  4524   0.132E-02
   2 F= -.11646771E+04 E0= -.11646620E+04  d E =-.322037E+00  mag=     2.4880
       N       E                     dE             d eps       ncg     rms          rms(c)
DAV:   1    -0.116464630688E+04    0.30723E-01   -0.23263E+01  6952   0.549E+00    0.231E+00
RMM:   2    -0.116471797640E+04   -0.71670E-01   -0.81460E-01  6144   0.106E+00    0.175E+00
RMM:   3    -0.116471378584E+04    0.41906E-02   -0.49048E-02  6238   0.246E-01    0.106E+00
RMM:   4    -0.116471809588E+04   -0.43100E-02   -0.39547E-02  6243   0.156E-01    0.524E-01
RMM:   5    -0.116472043453E+04   -0.23386E-02   -0.14484E-02  6694   0.950E-02    0.310E-01
RMM:   6    -0.116472098137E+04   -0.54684E-03   -0.28001E-03  7145   0.393E-02    0.226E-01
RMM:   7    -0.116472192400E+04   -0.94263E-03   -0.12320E-03  6326   0.290E-02    0.126E-01
RMM:   8    -0.116472249123E+04   -0.56723E-03   -0.69555E-04  5586   0.241E-02    0.640E-02
RMM:   9    -0.116472259590E+04   -0.10467E-03   -0.19513E-04  4264   0.120E-02    0.460E-02
RMM:  10    -0.116472267529E+04   -0.79391E-04   -0.11781E-04  3928   0.955E-03
   3 F= -.11647227E+04 E0= -.11647147E+04  d E =-.367653E+00  mag=     3.9127
       N       E                     dE             d eps       ncg     rms          rms(c)
DAV:   1    -0.116484254023E+04   -0.11994E+00   -0.37870E+01  6560   0.708E+00    0.197E+00
RMM:   2    -0.116490922690E+04   -0.66687E-01   -0.11456E+00  6144   0.131E+00    0.161E+00
RMM:   3    -0.116490093287E+04    0.82940E-02   -0.51376E-02  6336   0.298E-01    0.101E+00
RMM:   4    -0.116489594966E+04    0.49832E-02   -0.22312E-02  6825   0.141E-01    0.604E-01
RMM:   5    -0.116489385346E+04    0.20962E-02   -0.58047E-03  6664   0.697E-02    0.211E-01
RMM:   6    -0.116489391613E+04   -0.62671E-04   -0.87862E-04  6511   0.263E-02    0.136E-01
RMM:   7    -0.116489394341E+04   -0.27279E-04   -0.37777E-04  5214   0.176E-02    0.548E-02
RMM:   8    -0.116489395571E+04   -0.12303E-04   -0.14718E-04  4375   0.115E-02
   4 F= -.11648940E+04 E0= -.11648858E+04  d E =-.171280E+00  mag=     3.9713
       N       E                     dE             d eps       ncg     rms          rms(c)
DAV:   1    -0.116489687273E+04   -0.29293E-02   -0.16454E+00  6960   0.150E+00    0.414E-01
RMM:   2    -0.116489975243E+04   -0.28797E-02   -0.49889E-02  6144   0.274E-01    0.345E-01
RMM:   3    -0.116489942874E+04    0.32368E-03   -0.23971E-03  6332   0.635E-02    0.220E-01
RMM:   4    -0.116489922947E+04    0.19927E-03   -0.10280E-03  5749   0.305E-02    0.130E-01
RMM:   5    -0.116489913353E+04    0.95935E-04   -0.23593E-04  4467   0.157E-02    0.434E-02
RMM:   6    -0.116489913883E+04   -0.52995E-05   -0.44590E-05  3768   0.803E-03    0.273E-02
RMM:   7    -0.116489914198E+04   -0.31464E-05   -0.24939E-05  3608   0.560E-03    0.163E-02
RMM:   8    -0.116489914264E+04   -0.66533E-06   -0.11828E-05  3489   0.420E-03
   5 F= -.11648991E+04 E0= -.11648909E+04  d E =-.176467E+00  mag=     3.9780
       N       E                     dE             d eps       ncg     rms          rms(c)
DAV:   1    -0.116499068415E+04   -0.91542E-01   -0.11228E+01  6504   0.387E+00    0.116E+00
RMM:   2    -0.116501805332E+04   -0.27369E-01   -0.39730E-01  6144   0.788E-01    0.128E+00
RMM:   3    -0.116501399586E+04    0.40575E-02   -0.16717E-02  6634   0.160E-01    0.920E-01
RMM:   4    -0.116501165876E+04    0.23371E-02   -0.99360E-03  6536   0.966E-02    0.546E-01
RMM:   5    -0.116500982542E+04    0.18333E-02   -0.37929E-03  6258   0.606E-02    0.132E-01
RMM:   6    -0.116500975831E+04    0.67109E-04   -0.32402E-04  4864   0.170E-02    0.869E-02
RMM:   7    -0.116500973466E+04    0.23650E-04   -0.12285E-04  4065   0.117E-02    0.511E-02
RMM:   8    -0.116500973797E+04   -0.33136E-05   -0.83622E-05  3821   0.101E-02
   6 F= -.11650097E+04 E0= -.11650019E+04  d E =-.110595E+00  mag=     3.9787
       N       E                     dE             d eps       ncg     rms          rms(c)
DAV:   1    -0.116502479490E+04   -0.15060E-01   -0.61951E+00  6544   0.287E+00    0.839E-01
RMM:   2    -0.116503981310E+04   -0.15018E-01   -0.21587E-01  6144   0.582E-01    0.917E-01
RMM:   3    -0.116503759009E+04    0.22230E-02   -0.92623E-03  6629   0.118E-01    0.653E-01
RMM:   4    -0.116503629926E+04    0.12908E-02   -0.52964E-03  6442   0.702E-02    0.394E-01
RMM:   5    -0.116503530384E+04    0.99542E-03   -0.20784E-03  6103   0.451E-02    0.936E-02
RMM:   6    -0.116503527016E+04    0.33684E-04   -0.14651E-04  4162   0.126E-02    0.640E-02
RMM:   7    -0.116503526081E+04    0.93460E-05   -0.67629E-05  3825   0.950E-03    0.363E-02
RMM:   8    -0.116503526455E+04   -0.37362E-05   -0.54965E-05  3658   0.799E-03
   7 F= -.11650353E+04 E0= -.11650278E+04  d E =-.136122E+00  mag=     3.9793
       N       E                     dE             d eps       ncg     rms          rms(c)
DAV:   1    -0.116505933223E+04   -0.24071E-01   -0.51964E+00  6512   0.267E+00    0.588E-01
RMM:   2    -0.116507066867E+04   -0.11336E-01   -0.14689E-01  6144   0.481E-01    0.546E-01
RMM:   3    -0.116506991552E+04    0.75315E-03   -0.60949E-03  6583   0.105E-01    0.361E-01
RMM:   4    -0.116506942178E+04    0.49374E-03   -0.25178E-03  6413   0.471E-02    0.236E-01
RMM:   5    -0.116506905602E+04    0.36576E-03   -0.91383E-04  5901   0.284E-02    0.466E-02
RMM:   6    -0.116506904771E+04    0.83067E-05   -0.77237E-05  3918   0.973E-03    0.348E-02
RMM:   7    -0.116506904597E+04    0.17394E-05   -0.38265E-05  3600   0.728E-03    0.187E-02
RMM:   8    -0.116506904833E+04   -0.23543E-05   -0.27407E-05  3505   0.587E-03
   8 F= -.11650690E+04 E0= -.11650621E+04  d E =-.337838E-01  mag=     3.9791
       N       E                     dE             d eps       ncg     rms          rms(c)
DAV:   1    -0.116506696400E+04    0.20820E-02   -0.10327E+01  6440   0.376E+00    0.831E-01
RMM:   2    -0.116508966285E+04   -0.22699E-01   -0.29287E-01  6144   0.678E-01    0.770E-01
RMM:   3    -0.116508815666E+04    0.15062E-02   -0.12149E-02  6633   0.148E-01    0.507E-01
RMM:   4    -0.116508717920E+04    0.97747E-03   -0.48449E-03  6710   0.659E-02    0.334E-01
RMM:   5    -0.116508646519E+04    0.71401E-03   -0.19090E-03  6400   0.404E-02    0.670E-02
RMM:   6    -0.116508644741E+04    0.17779E-04   -0.16567E-04  4326   0.136E-02    0.497E-02
RMM:   7    -0.116508644483E+04    0.25775E-05   -0.84433E-05  3812   0.102E-02    0.275E-02
RMM:   8    -0.116508644953E+04   -0.47041E-05   -0.59768E-05  3627   0.805E-03
   9 F= -.11650864E+04 E0= -.11650802E+04  d E =-.511850E-01  mag=     3.9797
       N       E                     dE             d eps       ncg     rms          rms(c)
DAV:   1    -0.116509480815E+04   -0.83633E-02   -0.95423E+00  6448   0.362E+00    0.710E-01
RMM:   2    -0.116511612555E+04   -0.21317E-01   -0.25592E-01  6144   0.617E-01    0.578E-01
RMM:   3    -0.116511522340E+04    0.90215E-03   -0.10611E-02  6435   0.144E-01    0.370E-01
RMM:   4    -0.116511474524E+04    0.47817E-03   -0.35517E-03  6991   0.548E-02    0.241E-01
RMM:   5    -0.116511433679E+04    0.40844E-03   -0.11888E-03  6555   0.294E-02    0.509E-02
RMM:   6    -0.116511433613E+04    0.66629E-06   -0.13285E-04  4167   0.116E-02    0.345E-02
RMM:   7    -0.116511433991E+04   -0.37825E-05   -0.67446E-05  3687   0.890E-03    0.210E-02
RMM:   8    -0.116511434404E+04   -0.41307E-05   -0.43899E-05  3589   0.679E-03
  10 F= -.11651143E+04 E0= -.11651082E+04  d E =-.278945E-01  mag=     3.9798
       N       E                     dE             d eps       ncg     rms          rms(c)
DAV:   1    -0.116509774885E+04    0.16591E-01   -0.14210E+01  6368   0.442E+00    0.869E-01
RMM:   2    -0.116512935230E+04   -0.31603E-01   -0.37924E-01  6144   0.754E-01    0.705E-01
RMM:   3    -0.116512802542E+04    0.13269E-02   -0.15816E-02  6449   0.176E-01    0.450E-01
RMM:   4    -0.116512732423E+04    0.70120E-03   -0.52512E-03  7098   0.669E-02    0.293E-01
RMM:   5    -0.116512672147E+04    0.60275E-03   -0.17410E-03  6813   0.357E-02    0.611E-02
RMM:   6    -0.116512672433E+04   -0.28591E-05   -0.21467E-04  4546   0.140E-02    0.416E-02
RMM:   7    -0.116512673099E+04   -0.66592E-05   -0.10766E-04  3856   0.104E-02    0.249E-02
RMM:   8    -0.116512673708E+04   -0.60926E-05   -0.65077E-05  3672   0.799E-03
  11 F= -.11651267E+04 E0= -.11651207E+04  d E =-.402875E-01  mag=     3.9808
       N       E                     dE             d eps       ncg     rms          rms(c)
DAV:   1    -0.116512319911E+04    0.35319E-02   -0.13250E+01  6304   0.416E+00    0.817E-01
RMM:   2    -0.116515313951E+04   -0.29940E-01   -0.33344E-01  6148   0.688E-01    0.598E-01
RMM:   3    -0.116515233925E+04    0.80026E-03   -0.13960E-02  6262   0.169E-01    0.389E-01
RMM:   4    -0.116515165412E+04    0.68513E-03   -0.45854E-03  7213   0.635E-02    0.205E-01
RMM:   5    -0.116515146496E+04    0.18916E-03   -0.12303E-03  6919   0.305E-02    0.495E-02
RMM:   6    -0.116515146775E+04   -0.27868E-05   -0.17320E-04  4173   0.121E-02    0.332E-02
RMM:   7    -0.116515147400E+04   -0.62474E-05   -0.97900E-05  3835   0.947E-03    0.169E-02
RMM:   8    -0.116515147809E+04   -0.40930E-05   -0.57086E-05  3667   0.762E-03
  12 F= -.11651515E+04 E0= -.11651455E+04  d E =-.247410E-01  mag=     3.9810
       N       E                     dE             d eps       ncg     rms          rms(c)
DAV:   1    -0.116513326830E+04    0.18206E-01   -0.12417E+01  6320   0.403E+00    0.789E-01
RMM:   2    -0.116516120316E+04   -0.27935E-01   -0.31130E-01  6150   0.664E-01    0.576E-01
RMM:   3    -0.116516047229E+04    0.73087E-03   -0.13074E-02  6253   0.163E-01    0.373E-01
RMM:   4    -0.116515983129E+04    0.64100E-03   -0.42822E-03  7281   0.612E-02    0.198E-01
RMM:   5    -0.116515965620E+04    0.17509E-03   -0.11484E-03  6893   0.293E-02    0.472E-02
RMM:   6    -0.116515966047E+04   -0.42706E-05   -0.16655E-04  4192   0.118E-02    0.316E-02
RMM:   7    -0.116515966648E+04   -0.60071E-05   -0.91689E-05  3845   0.930E-03    0.163E-02
RMM:   8    -0.116515967050E+04   -0.40202E-05   -0.56467E-05  3701   0.752E-03
  13 F= -.11651597E+04 E0= -.11651537E+04  d E =-.329334E-01  mag=     3.9811
       N       E                     dE             d eps       ncg     rms          rms(c)
DAV:   1    -0.116514697104E+04    0.12695E-01   -0.14288E+01  6368   0.431E+00    0.801E-01
RMM:   2    -0.116517730030E+04   -0.30329E-01   -0.35586E-01  6144   0.716E-01    0.615E-01
RMM:   3    -0.116517604321E+04    0.12571E-02   -0.14746E-02  6290   0.170E-01    0.393E-01
RMM:   4    -0.116517523070E+04    0.81251E-03   -0.53777E-03  7160   0.669E-02    0.236E-01
RMM:   5    -0.116517479184E+04    0.43885E-03   -0.15286E-03  6888   0.337E-02    0.615E-02
RMM:   6    -0.116517479827E+04   -0.64304E-05   -0.18904E-04  4453   0.130E-02    0.435E-02
RMM:   7    -0.116517480521E+04   -0.69423E-05   -0.10601E-04  3892   0.104E-02    0.239E-02
RMM:   8    -0.116517481114E+04   -0.59257E-05   -0.66540E-05  3704   0.801E-03
  14 F= -.11651748E+04 E0= -.11651692E+04  d E =-.151406E-01  mag=     3.9807
       N       E                     dE             d eps       ncg     rms          rms(c)
DAV:   1    -0.116517426463E+04    0.54058E-03   -0.52896E-01  6800   0.830E-01    0.154E-01
RMM:   2    -0.116517540060E+04   -0.11360E-02   -0.13324E-02  6148   0.138E-01    0.119E-01
RMM:   3    -0.116517534665E+04    0.53958E-04   -0.55721E-04  5263   0.330E-02    0.774E-02
RMM:   4    -0.116517531609E+04    0.30559E-04   -0.21429E-04  4109   0.141E-02    0.427E-02
RMM:   5    -0.116517530290E+04    0.13191E-04   -0.61638E-05  3651   0.809E-03    0.131E-02
RMM:   6    -0.116517530475E+04   -0.18539E-05   -0.21144E-05  3438   0.490E-03    0.892E-03
RMM:   7    -0.116517530584E+04   -0.10902E-05   -0.12370E-05  3252   0.373E-03    0.635E-03
RMM:   8    -0.116517530652E+04   -0.68369E-06   -0.75084E-06  2998   0.310E-03
  15 F= -.11651753E+04 E0= -.11651697E+04  d E =-.156360E-01  mag=     3.9806
       N       E                     dE             d eps       ncg     rms          rms(c)
DAV:   1    -0.116516278615E+04    0.12520E-01   -0.11779E+01  6376   0.397E+00    0.766E-01
RMM:   2    -0.116518913392E+04   -0.26348E-01   -0.29558E-01  6146   0.656E-01    0.549E-01
RMM:   3    -0.116518826683E+04    0.86709E-03   -0.11973E-02  6184   0.158E-01    0.355E-01
RMM:   4    -0.116518772619E+04    0.54064E-03   -0.42116E-03  7193   0.594E-02    0.185E-01
RMM:   5    -0.116518750362E+04    0.22257E-03   -0.10862E-03  6966   0.277E-02    0.430E-02
RMM:   6    -0.116518750709E+04   -0.34728E-05   -0.15752E-04  4115   0.115E-02    0.297E-02
RMM:   7    -0.116518751147E+04   -0.43767E-05   -0.78172E-05  3771   0.910E-03    0.171E-02
RMM:   8    -0.116518751562E+04   -0.41508E-05   -0.57888E-05  3672   0.752E-03
  16 F= -.11651875E+04 E0= -.11651819E+04  d E =-.122091E-01  mag=     3.9807
       N       E                     dE             d eps       ncg     rms          rms(c)
DAV:   1    -0.116518505082E+04    0.24606E-02   -0.17172E+00  6456   0.152E+00    0.292E-01
RMM:   2    -0.116518893048E+04   -0.38797E-02   -0.43466E-02  6146   0.251E-01    0.210E-01
RMM:   3    -0.116518879367E+04    0.13681E-03   -0.18166E-03  6149   0.607E-02    0.136E-01
RMM:   4    -0.116518871185E+04    0.81820E-04   -0.62817E-04  6032   0.233E-02    0.701E-02
RMM:   5    -0.116518868025E+04    0.31592E-04   -0.14759E-04  4102   0.122E-02    0.184E-02
RMM:   6    -0.116518868325E+04   -0.29956E-05   -0.37033E-05  3549   0.732E-03    0.105E-02
RMM:   7    -0.116518868551E+04   -0.22601E-05   -0.30413E-05  3382   0.567E-03    0.821E-03
RMM:   8    -0.116518868658E+04   -0.10654E-05   -0.14378E-05  3229   0.438E-03
  17 F= -.11651887E+04 E0= -.11651830E+04  d E =-.133801E-01  mag=     3.9809
       N       E                     dE             d eps       ncg     rms          rms(c)
DAV:   1    -0.116518134937E+04    0.73361E-02   -0.64967E+00  6368   0.295E+00    0.567E-01
RMM:   2    -0.116519557784E+04   -0.14228E-01   -0.16638E-01  6144   0.497E-01    0.437E-01
RMM:   3    -0.116519499909E+04    0.57875E-03   -0.67719E-03  6312   0.116E-01    0.287E-01
RMM:   4    -0.116519458124E+04    0.41784E-03   -0.25183E-03  6898   0.457E-02    0.151E-01
RMM:   5    -0.116519441167E+04    0.16958E-03   -0.63101E-04  5975   0.221E-02    0.388E-02
RMM:   6    -0.116519441312E+04   -0.14512E-05   -0.86560E-05  3767   0.960E-03    0.263E-02
RMM:   7    -0.116519441596E+04   -0.28445E-05   -0.55038E-05  3661   0.747E-03    0.146E-02
RMM:   8    -0.116519441928E+04   -0.33175E-05   -0.37702E-05  3586   0.621E-03
  18 F= -.11651944E+04 E0= -.11651883E+04  d E =-.573271E-02  mag=     3.9812
       N       E                     dE             d eps       ncg     rms          rms(c)
DAV:   1    -0.116519442249E+04   -0.65271E-05   -0.66497E-04  5816   0.300E-02    0.630E-03
RMM:   2    -0.116519442524E+04   -0.27458E-05   -0.30815E-05  3382   0.659E-03    0.590E-03
RMM:   3    -0.116519442597E+04   -0.73295E-06   -0.86521E-06  2784   0.335E-03    0.366E-03
RMM:   4    -0.116519442629E+04   -0.32235E-06   -0.43053E-06  1828   0.256E-03    0.302E-03
RMM:   5    -0.116519442645E+04   -0.16285E-06   -0.23940E-06  1310   0.230E-03    0.774E-04
RMM:   6    -0.116519442656E+04   -0.10827E-06   -0.12396E-06   908   0.208E-03    0.490E-04
RMM:   7    -0.116519442662E+04   -0.53682E-07   -0.66183E-07   743   0.200E-03    0.313E-04
RMM:   8    -0.116519442664E+04   -0.25670E-07   -0.34498E-07   639   0.194E-03
  19 F= -.11651944E+04 E0= -.11651883E+04  d E =-.574007E-02  mag=     3.9814
       N       E                     dE             d eps       ncg     rms          rms(c)
DAV:   1    -0.116519006383E+04    0.43628E-02   -0.40850E+00  6376   0.234E+00    0.424E-01
RMM:   2    -0.116519904195E+04   -0.89781E-02   -0.10247E-01  6144   0.390E-01    0.332E-01
RMM:   3    -0.116519875043E+04    0.29152E-03   -0.40914E-03  6158   0.909E-02    0.215E-01
RMM:   4    -0.116519855516E+04    0.19527E-03   -0.14143E-03  6331   0.345E-02    0.133E-01
RMM:   5    -0.116519842832E+04    0.12684E-03   -0.41310E-04  5479   0.183E-02    0.261E-02
RMM:   6    -0.116519842976E+04   -0.14399E-05   -0.46686E-05  3593   0.824E-03    0.185E-02
RMM:   7    -0.116519843241E+04   -0.26516E-05   -0.40076E-05  3538   0.640E-03    0.112E-02
RMM:   8    -0.116519843420E+04   -0.17924E-05   -0.23854E-05  3422   0.517E-03
  20 F= -.11651984E+04 E0= -.11651921E+04  d E =-.400756E-02  mag=     3.9813
       N       E                     dE             d eps       ncg     rms          rms(c)
DAV:   1    -0.116519814500E+04    0.28741E-03   -0.22258E-01  6424   0.547E-01    0.986E-02
RMM:   2    -0.116519864271E+04   -0.49771E-03   -0.56720E-03  6115   0.911E-02    0.779E-02
RMM:   3    -0.116519862113E+04    0.21582E-04   -0.20148E-04  3979   0.216E-02    0.513E-02
RMM:   4    -0.116519861051E+04    0.10616E-04   -0.81780E-05  3556   0.968E-03    0.286E-02
RMM:   5    -0.116519860660E+04    0.39125E-05   -0.29896E-05  3450   0.592E-03    0.662E-03
RMM:   6    -0.116519860762E+04   -0.10251E-05   -0.11210E-05  3251   0.374E-03    0.494E-03
RMM:   7    -0.116519860812E+04   -0.49938E-06   -0.57998E-06  2565   0.289E-03    0.306E-03
RMM:   8    -0.116519860843E+04   -0.30494E-06   -0.32136E-06  1998   0.245E-03
  21 F= -.11651986E+04 E0= -.11651922E+04  d E =-.418179E-02  mag=     3.9812
       N       E                     dE             d eps       ncg     rms          rms(c)
DAV:   1    -0.116519356699E+04    0.50411E-02   -0.38363E+00  6384   0.226E+00    0.417E-01
RMM:   2    -0.116520198628E+04   -0.84193E-02   -0.96971E-02  6144   0.380E-01    0.349E-01
RMM:   3    -0.116520169519E+04    0.29109E-03   -0.38883E-03  6191   0.879E-02    0.232E-01
RMM:   4    -0.116520147998E+04    0.21521E-03   -0.13688E-03  6327   0.337E-02    0.135E-01
RMM:   5    -0.116520135158E+04    0.12840E-03   -0.41682E-04  5454   0.183E-02    0.271E-02
RMM:   6    -0.116520135261E+04   -0.10338E-05   -0.48483E-05  3619   0.814E-03    0.189E-02
RMM:   7    -0.116520135431E+04   -0.16951E-05   -0.34527E-05  3507   0.607E-03    0.111E-02
RMM:   8    -0.116520135627E+04   -0.19646E-05   -0.24023E-05  3440   0.515E-03
  22 F= -.11652014E+04 E0= -.11651950E+04  d E =-.274784E-02  mag=     3.9811
       N       E                     dE             d eps       ncg     rms          rms(c)
DAV:   1    -0.116520135715E+04   -0.28463E-05   -0.54738E-05  3768   0.952E-03    0.440E-03
RMM:   2    -0.116520135822E+04   -0.10634E-05   -0.11482E-05  3267   0.460E-03    0.333E-03
RMM:   3    -0.116520135872E+04   -0.50192E-06   -0.48337E-06  2198   0.250E-03    0.169E-03
RMM:   4    -0.116520135891E+04   -0.19548E-06   -0.22974E-06  1666   0.230E-03    0.156E-03
RMM:   5    -0.116520135902E+04   -0.10506E-06   -0.89093E-07   760   0.196E-03    0.535E-04
RMM:   6    -0.116520135907E+04   -0.51616E-07   -0.53449E-07   656   0.190E-03    0.236E-04
RMM:   7    -0.116520135909E+04   -0.19572E-07   -0.26099E-07   570   0.187E-03    0.108E-04
RMM:   8    -0.116520135910E+04   -0.11147E-07   -0.13682E-07   513   0.184E-03
  23 F= -.11652014E+04 E0= -.11651950E+04  d E =-.275067E-02  mag=     3.9811
       N       E                     dE             d eps       ncg     rms          rms(c)
DAV:   1    -0.116519968714E+04    0.16719E-02   -0.14796E+00  6448   0.142E+00    0.280E-01
RMM:   2    -0.116520291470E+04   -0.32276E-02   -0.39075E-02  6144   0.243E-01    0.234E-01
RMM:   3    -0.116520274437E+04    0.17033E-03   -0.15841E-03  6146   0.560E-02    0.153E-01
RMM:   4    -0.116520263645E+04    0.10792E-03   -0.59385E-04  5410   0.230E-02    0.923E-02
RMM:   5    -0.116520257075E+04    0.65700E-04   -0.15225E-04  4123   0.136E-02    0.215E-02
RMM:   6    -0.116520257481E+04   -0.40613E-05   -0.37524E-05  3537   0.726E-03    0.140E-02
RMM:   7    -0.116520257586E+04   -0.10465E-05   -0.18196E-05  3428   0.519E-03    0.106E-02
RMM:   8    -0.116520257680E+04   -0.93906E-06   -0.11773E-05  3193   0.382E-03
  24 F= -.11652026E+04 E0= -.11651964E+04  d E =-.121770E-02  mag=     3.9810
       N       E                     dE             d eps       ncg     rms          rms(c)
DAV:   1    -0.116520255152E+04    0.24341E-04   -0.32115E-02  6368   0.210E-01    0.417E-02
RMM:   2    -0.116520262007E+04   -0.68555E-04   -0.83747E-04  5947   0.361E-02    0.343E-02
RMM:   3    -0.116520261603E+04    0.40437E-05   -0.25521E-05  3376   0.836E-03    0.223E-02
RMM:   4    -0.116520261366E+04    0.23720E-05   -0.11187E-05  3150   0.395E-03    0.126E-02
RMM:   5    -0.116520261259E+04    0.10636E-05   -0.20030E-06  2010   0.212E-03    0.253E-03
RMM:   6    -0.116520261260E+04   -0.49040E-08   -0.67116E-08   650   0.165E-03    0.154E-03
RMM:   7    -0.116520261260E+04    0.19500E-08   -0.17875E-08   519   0.162E-03    0.850E-04
RMM:   8    -0.116520261260E+04    0.50932E-09   -0.18361E-08   479   0.162E-03
  25 F= -.11652026E+04 E0= -.11651964E+04  d E =-.125349E-02  mag=     3.9810
       N       E                     dE             d eps       ncg     rms          rms(c)
DAV:   1    -0.116520209977E+04    0.51282E-03   -0.55996E-01  6448   0.881E-01    0.177E-01
RMM:   2    -0.116520333462E+04   -0.12348E-02   -0.15078E-02  6144   0.153E-01    0.145E-01
RMM:   3    -0.116520326882E+04    0.65797E-04   -0.55605E-04  5253   0.344E-02    0.957E-02
RMM:   4    -0.116520322405E+04    0.44773E-04   -0.20101E-04  3951   0.151E-02    0.524E-02
RMM:   5    -0.116520320446E+04    0.19587E-04   -0.59915E-05  3650   0.863E-03    0.118E-02
RMM:   6    -0.116520320566E+04   -0.12017E-05   -0.15283E-05  3399   0.474E-03    0.805E-03
RMM:   7    -0.116520320626E+04   -0.60034E-06   -0.72633E-06  3005   0.319E-03    0.540E-03
RMM:   8    -0.116520320664E+04   -0.38020E-06   -0.39701E-06  2589   0.276E-03
  26 F= -.11652032E+04 E0= -.11651971E+04  d E =-.594046E-03  mag=     3.9810
       N       E                     dE             d eps       ncg     rms          rms(c)
DAV:   1    -0.116520319993E+04    0.63306E-05   -0.56341E-03  6528   0.883E-02    0.180E-02
RMM:   2    -0.116520321048E+04   -0.10547E-04   -0.13381E-04  3468   0.155E-02    0.162E-02
RMM:   3    -0.116520321147E+04   -0.99425E-06   -0.11262E-05  3127   0.533E-03    0.897E-03
RMM:   4    -0.116520321108E+04    0.38883E-06   -0.68363E-07  1619   0.212E-03    0.728E-03
RMM:   5    -0.116520321068E+04    0.40678E-06   -0.14276E-06  1677   0.196E-03    0.243E-03
RMM:   6    -0.116520321073E+04   -0.49928E-07   -0.62074E-07   773   0.162E-03    0.140E-03
RMM:   7    -0.116520321072E+04    0.37689E-08   -0.88529E-10   442   0.139E-03    0.108E-03
RMM:   8    -0.116520321071E+04    0.73342E-08   -0.86724E-10   393   0.137E-03
  27 F= -.11652032E+04 E0= -.11651971E+04  d E =-.598120E-03  mag=     3.9809
       N       E                     dE             d eps       ncg     rms          rms(c)
DAV:   1    -0.116520280192E+04    0.40880E-03   -0.42810E-01  6416   0.770E-01    0.158E-01
RMM:   2    -0.116520372455E+04   -0.92263E-03   -0.11380E-02  6144   0.132E-01    0.127E-01
RMM:   3    -0.116520366513E+04    0.59419E-04   -0.41758E-04  4866   0.303E-02    0.830E-02
RMM:   4    -0.116520362860E+04    0.36539E-04   -0.16113E-04  3768   0.138E-02    0.465E-02
RMM:   5    -0.116520361523E+04    0.13361E-04   -0.53667E-05  3556   0.810E-03    0.116E-02
RMM:   6    -0.116520361640E+04   -0.11647E-05   -0.14382E-05  3396   0.453E-03    0.849E-03
RMM:   7    -0.116520361703E+04   -0.62896E-06   -0.69220E-06  2945   0.307E-03    0.549E-03
RMM:   8    -0.116520361747E+04   -0.44523E-06   -0.38180E-06  2569   0.271E-03
  28 F= -.11652036E+04 E0= -.11651975E+04  d E =-.406758E-03  mag=     3.9809
