       N       E                     dE             d eps       ncg     rms          rms(c)
DAV:   1    -0.116515004760E+04   -0.11652E+04   -0.89979E-06  7560   0.752E-03    0.113E-02
RMM:   2    -0.116515004738E+04    0.21920E-06   -0.92017E-06  6224   0.363E-03    0.113E-02
RMM:   3    -0.116515004650E+04    0.88350E-06   -0.40791E-06  4982   0.269E-03    0.142E-03
RMM:   4    -0.116515004658E+04   -0.85376E-07   -0.10716E-06  2669   0.205E-03    0.111E-03
RMM:   5    -0.116515004661E+04   -0.26601E-07   -0.52392E-07  1801   0.194E-03    0.720E-04
RMM:   6    -0.116515004661E+04   -0.22264E-08   -0.10626E-07  1158   0.185E-03    0.446E-04
RMM:   7    -0.116515004661E+04   -0.93132E-09   -0.36659E-08  1029   0.183E-03    0.176E-04
RMM:   8    -0.116515004662E+04   -0.24884E-08   -0.20314E-08   966   0.183E-03
   1 F= -.11651500E+04 E0= -.11651446E+04  d E =-.116515E+04  mag=     1.9628
       N       E                     dE             d eps       ncg     rms          rms(c)
DAV:   1    -0.116515119143E+04   -0.11448E-02   -0.91858E-01 12928   0.110E+00    0.265E-01
RMM:   2    -0.116515300889E+04   -0.18175E-02   -0.28694E-02 12288   0.210E-01    0.262E-01
RMM:   3    -0.116515273572E+04    0.27317E-03   -0.12010E-03 12482   0.433E-02    0.172E-01
RMM:   4    -0.116515253303E+04    0.20269E-03   -0.67032E-04 10896   0.253E-02    0.107E-01
RMM:   5    -0.116515242216E+04    0.11087E-03   -0.17512E-04  8454   0.145E-02    0.268E-02
RMM:   6    -0.116515242339E+04   -0.12289E-05   -0.28183E-05  7042   0.621E-03    0.178E-02
RMM:   7    -0.116515242361E+04   -0.22864E-06   -0.12443E-05  6779   0.402E-03    0.132E-02
RMM:   8    -0.116515242386E+04   -0.24789E-06   -0.66656E-06  6251   0.324E-03
   2 F= -.11651524E+04 E0= -.11651469E+04  d E =-.237725E-02  mag=     1.9627
       N       E                     dE             d eps       ncg     rms          rms(c)
DAV:   1    -0.116515406607E+04   -0.16425E-02   -0.18503E-01 12664   0.495E-01    0.125E-01
RMM:   2    -0.116515433331E+04   -0.26725E-03   -0.59492E-03 12179   0.940E-02    0.128E-01
RMM:   3    -0.116515424525E+04    0.88068E-04   -0.19912E-04  8493   0.204E-02    0.864E-02
RMM:   4    -0.116515418680E+04    0.58450E-04   -0.21553E-04  8050   0.151E-02    0.453E-02
RMM:   5    -0.116515416184E+04    0.24954E-04   -0.48328E-05  7313   0.748E-03    0.174E-02
RMM:   6    -0.116515416177E+04    0.73196E-07   -0.10406E-05  5877   0.361E-03    0.121E-02
RMM:   7    -0.116515416211E+04   -0.34417E-06   -0.42496E-06  4764   0.261E-03    0.748E-03
RMM:   8    -0.116515416216E+04   -0.49913E-07   -0.18729E-06  4054   0.225E-03
   3 F= -.11651542E+04 E0= -.11651487E+04  d E =-.173830E-02  mag=     1.9632
       N       E                     dE             d eps       ncg     rms          rms(c)
DAV:   1    -0.116515478232E+04   -0.62020E-03   -0.38002E-01 12800   0.708E-01    0.126E-01
RMM:   2    -0.116515561998E+04   -0.83767E-03   -0.93367E-03 12267   0.116E-01    0.877E-02
RMM:   3    -0.116515558633E+04    0.33652E-04   -0.33703E-04  8413   0.278E-02    0.569E-02
RMM:   4    -0.116515556531E+04    0.21018E-04   -0.11420E-04  7086   0.115E-02    0.279E-02
RMM:   5    -0.116515556176E+04    0.35527E-05   -0.33407E-05  6775   0.629E-03    0.790E-03
RMM:   6    -0.116515556292E+04   -0.11631E-05   -0.12510E-05  6606   0.385E-03    0.563E-03
RMM:   7    -0.116515556343E+04   -0.51202E-06   -0.60336E-06  5295   0.287E-03    0.333E-03
RMM:   8    -0.116515556371E+04   -0.27468E-06   -0.31516E-06  4239   0.242E-03
   4 F= -.11651556E+04 E0= -.11651501E+04  d E =-.140155E-02  mag=     1.9629
       N       E                     dE             d eps       ncg     rms          rms(c)
DAV:   1    -0.116515606773E+04   -0.50430E-03   -0.11630E-01 12368   0.389E-01    0.691E-02
RMM:   2    -0.116515632043E+04   -0.25269E-03   -0.28991E-03 12114   0.640E-02    0.491E-02
RMM:   3    -0.116515630576E+04    0.14667E-04   -0.94044E-05  7010   0.157E-02    0.314E-02
RMM:   4    -0.116515629932E+04    0.64432E-05   -0.44642E-05  6872   0.735E-03    0.167E-02
RMM:   5    -0.116515629744E+04    0.18800E-05   -0.11981E-05  6017   0.378E-03    0.505E-03
RMM:   6    -0.116515629777E+04   -0.32679E-06   -0.37390E-06  4143   0.257E-03    0.306E-03
RMM:   7    -0.116515629795E+04   -0.18413E-06   -0.19012E-06  3483   0.225E-03    0.209E-03
RMM:   8    -0.116515629800E+04   -0.52649E-07   -0.73619E-07  2239   0.209E-03
   5 F= -.11651563E+04 E0= -.11651508E+04  d E =-.734294E-03  mag=     1.9629
       N       E                     dE             d eps       ncg     rms          rms(c)
DAV:   1    -0.116515638868E+04   -0.90728E-04   -0.72330E-01 12768   0.970E-01    0.161E-01
RMM:   2    -0.116515799996E+04   -0.16113E-02   -0.17383E-02 12303   0.156E-01    0.106E-01
RMM:   3    -0.116515795618E+04    0.43777E-04   -0.68236E-04 10607   0.381E-02    0.692E-02
RMM:   4    -0.116515792043E+04    0.35752E-04   -0.20126E-04  7560   0.143E-02    0.290E-02
RMM:   5    -0.116515791683E+04    0.35955E-05   -0.42284E-05  6962   0.691E-03    0.960E-03
RMM:   6    -0.116515791864E+04   -0.18020E-05   -0.17077E-05  6748   0.423E-03    0.622E-03
RMM:   7    -0.116515791935E+04   -0.71959E-06   -0.86955E-06  5981   0.317E-03    0.392E-03
RMM:   8    -0.116515791979E+04   -0.43944E-06   -0.51536E-06  5450   0.264E-03
   6 F= -.11651579E+04 E0= -.11651524E+04  d E =-.162179E-02  mag=     1.9627
       N       E                     dE             d eps       ncg     rms          rms(c)
DAV:   1    -0.116515815158E+04   -0.23223E-03   -0.41656E-01 12600   0.735E-01    0.121E-01
RMM:   2    -0.116515907782E+04   -0.92624E-03   -0.10011E-02 12264   0.118E-01    0.794E-02
RMM:   3    -0.116515904823E+04    0.29594E-04   -0.37517E-04  8570   0.290E-02    0.523E-02
RMM:   4    -0.116515902600E+04    0.22228E-04   -0.12084E-04  7101   0.117E-02    0.194E-02
RMM:   5    -0.116515902627E+04   -0.26556E-06   -0.29917E-05  6811   0.579E-03    0.768E-03
RMM:   6    -0.116515902753E+04   -0.12632E-05   -0.13313E-05  6614   0.375E-03    0.527E-03
RMM:   7    -0.116515902811E+04   -0.58018E-06   -0.65762E-06  5257   0.288E-03    0.312E-03
RMM:   8    -0.116515902844E+04   -0.32643E-06   -0.35865E-06  4332   0.242E-03
   7 F= -.11651590E+04 E0= -.11651535E+04  d E =-.110864E-02  mag=     1.9627
