       N       E                     dE             d eps       ncg     rms          rms(c)
DAV:   1     0.117982523338E+05    0.11798E+05   -0.41773E+05  6168   0.130E+03
DAV:   2     0.610343145578E+03   -0.11188E+05   -0.99933E+04  6152   0.372E+02
DAV:   3    -0.137517194584E+04   -0.19855E+04   -0.19155E+04  6624   0.163E+02
DAV:   4    -0.150426026839E+04   -0.12909E+03   -0.12691E+03  8208   0.429E+01
DAV:   5    -0.151198971666E+04   -0.77294E+01   -0.77004E+01 11048   0.905E+00    0.180E+02
RMM:   6    -0.116826466997E+04    0.34373E+03   -0.15720E+03  6251   0.337E+01    0.951E+01
RMM:   7    -0.115536115907E+04    0.12904E+02   -0.59884E+01  6354   0.968E+00    0.561E+01
RMM:   8    -0.116379764046E+04   -0.84365E+01   -0.36575E+01  6272   0.665E+00    0.220E+01
RMM:   9    -0.116404298597E+04   -0.24535E+00   -0.77426E+00  6444   0.232E+00    0.114E+01
RMM:  10    -0.116277953154E+04    0.12635E+01   -0.18846E+00  6479   0.115E+00    0.691E+00
RMM:  11    -0.116386987850E+04   -0.10903E+01   -0.18842E+00  6346   0.112E+00    0.490E+00
RMM:  12    -0.116439421152E+04   -0.52433E+00   -0.56120E-01  6811   0.633E-01    0.323E+00
RMM:  13    -0.116482035757E+04   -0.42615E+00   -0.36603E-01  6345   0.538E-01    0.178E+00
RMM:  14    -0.116493253432E+04   -0.11218E+00   -0.14328E-01  6659   0.340E-01    0.106E+00
RMM:  15    -0.116496954096E+04   -0.37007E-01   -0.69103E-02  6698   0.222E-01    0.625E-01
RMM:  16    -0.116497309309E+04   -0.35521E-02   -0.18675E-02  7036   0.121E-01    0.220E-01
RMM:  17    -0.116497455792E+04   -0.14648E-02   -0.53625E-03  7664   0.586E-02    0.181E-01
RMM:  18    -0.116497462954E+04   -0.71614E-04   -0.12691E-03  6578   0.271E-02    0.864E-02
RMM:  19    -0.116497467103E+04   -0.41490E-04   -0.38377E-04  5005   0.150E-02
   1 F= -.11649747E+04 E0= -.11649666E+04  d E =-.116497E+04  mag=     1.8984
       N       E                     dE             d eps       ncg     rms          rms(c)
DAV:   1    -0.116505186319E+04   -0.77234E-01   -0.16371E+02  7176   0.142E+01    0.477E+00
RMM:   2    -0.116549340357E+04   -0.44154E+00   -0.68684E+00  6144   0.303E+00    0.503E+00
RMM:   3    -0.116543466186E+04    0.58742E-01   -0.32272E-01  6521   0.695E-01    0.327E+00
RMM:   4    -0.116542119571E+04    0.13466E-01   -0.16100E-01  6735   0.373E-01    0.176E+00
RMM:   5    -0.116540394548E+04    0.17250E-01   -0.48341E-02  6758   0.204E-01    0.564E-01
RMM:   6    -0.116540386107E+04    0.84409E-04   -0.67983E-03  7778   0.672E-02    0.363E-01
RMM:   7    -0.116540402416E+04   -0.16309E-03   -0.28693E-03  6984   0.464E-02    0.199E-01
RMM:   8    -0.116540427031E+04   -0.24615E-03   -0.12910E-03  6684   0.319E-02    0.728E-02
RMM:   9    -0.116540431288E+04   -0.42569E-04   -0.33417E-04  4963   0.156E-02
   2 F= -.11654043E+04 E0= -.11653961E+04  d E =-.429642E+00  mag=     1.9476
       N       E                     dE             d eps       ncg     rms          rms(c)
DAV:   1    -0.116540200097E+04    0.22693E-02   -0.24473E+00  7120   0.179E+00    0.589E-01
RMM:   2    -0.116540845487E+04   -0.64539E-02   -0.87042E-02  6144   0.360E-01    0.653E-01
RMM:   3    -0.116540757804E+04    0.87683E-03   -0.39073E-03  6182   0.780E-02    0.457E-01
RMM:   4    -0.116540773132E+04   -0.15327E-03   -0.27927E-03  6021   0.481E-02    0.285E-01
RMM:   5    -0.116540731723E+04    0.41408E-03   -0.13115E-03  5699   0.324E-02    0.742E-02
RMM:   6    -0.116540731313E+04    0.40979E-05   -0.12828E-04  4144   0.109E-02    0.500E-02
RMM:   7    -0.116540731764E+04   -0.45032E-05   -0.43129E-05  3741   0.712E-03    0.269E-02
RMM:   8    -0.116540732615E+04   -0.85093E-05   -0.26221E-05  3620   0.612E-03
   3 F= -.11654073E+04 E0= -.11653980E+04  d E =-.432655E+00  mag=     1.9722
       N       E                     dE             d eps       ncg     rms          rms(c)
DAV:   1    -0.116549023299E+04   -0.82915E-01   -0.36788E+01  6600   0.709E+00    0.194E+00
RMM:   2    -0.116557211002E+04   -0.81877E-01   -0.11477E+00  6146   0.130E+00    0.167E+00
RMM:   3    -0.116556477538E+04    0.73346E-02   -0.47124E-02  6724   0.278E-01    0.104E+00
RMM:   4    -0.116556114394E+04    0.36314E-02   -0.19836E-02  6866   0.133E-01    0.622E-01
RMM:   5    -0.116555873805E+04    0.24059E-02   -0.63493E-03  6820   0.748E-02    0.120E-01
RMM:   6    -0.116555879215E+04   -0.54095E-04   -0.98058E-04  6815   0.253E-02    0.838E-02
RMM:   7    -0.116555881701E+04   -0.24862E-04   -0.42536E-04  5253   0.161E-02    0.544E-02
RMM:   8    -0.116555884421E+04   -0.27197E-04   -0.25117E-04  4778   0.133E-02
   4 F= -.11655588E+04 E0= -.11655511E+04  d E =-.151518E+00  mag=     1.9663
       N       E                     dE             d eps       ncg     rms          rms(c)
DAV:   1    -0.116556255026E+04   -0.37333E-02   -0.46462E+00  6816   0.251E+00    0.691E-01
RMM:   2    -0.116557326528E+04   -0.10715E-01   -0.14596E-01  6146   0.458E-01    0.589E-01
RMM:   3    -0.116557245376E+04    0.81152E-03   -0.62338E-03  6707   0.992E-02    0.376E-01
RMM:   4    -0.116557212521E+04    0.32855E-03   -0.31632E-03  6586   0.506E-02    0.220E-01
RMM:   5    -0.116557188700E+04    0.23821E-03   -0.98256E-04  6058   0.287E-02    0.592E-02
RMM:   6    -0.116557190449E+04   -0.17486E-04   -0.19525E-04  4363   0.119E-02    0.442E-02
RMM:   7    -0.116557191088E+04   -0.63977E-05   -0.83842E-05  3854   0.876E-03    0.300E-02
RMM:   8    -0.116557192538E+04   -0.14496E-04   -0.62094E-05  3701   0.764E-03
   5 F= -.11655719E+04 E0= -.11655625E+04  d E =-.164599E+00  mag=     1.9598
       N       E                     dE             d eps       ncg     rms          rms(c)
DAV:   1    -0.116558564111E+04   -0.13730E-01   -0.28844E+01  6352   0.636E+00    0.184E+00
RMM:   2    -0.116566285531E+04   -0.77214E-01   -0.89904E-01  6144   0.115E+00    0.177E+00
RMM:   3    -0.116565891838E+04    0.39369E-02   -0.43230E-02  6604   0.263E-01    0.111E+00
RMM:   4    -0.116566485170E+04   -0.59333E-02   -0.19712E-02  6876   0.125E-01    0.808E-01
RMM:   5    -0.116566826195E+04   -0.34102E-02   -0.14794E-02  6772   0.110E-01    0.439E-01
RMM:   6    -0.116566914237E+04   -0.88042E-03   -0.33756E-03  7022   0.501E-02    0.317E-01
RMM:   7    -0.116567127109E+04   -0.21287E-02   -0.36271E-03  6468   0.544E-02    0.208E-01
RMM:   8    -0.116567219660E+04   -0.92551E-03   -0.18895E-03  6099   0.417E-02    0.858E-02
RMM:   9    -0.116567241335E+04   -0.21675E-03   -0.51720E-04  5294   0.211E-02    0.679E-02
RMM:  10    -0.116567245781E+04   -0.44454E-04   -0.20114E-04  4354   0.132E-02
   6 F= -.11656725E+04 E0= -.11656675E+04  d E =-.100532E+00  mag=     1.9715
       N       E                     dE             d eps       ncg     rms          rms(c)
DAV:   1    -0.116568063223E+04   -0.82189E-02   -0.33273E+00  6512   0.217E+00    0.571E-01
RMM:   2    -0.116568850492E+04   -0.78727E-02   -0.10172E-01  6148   0.392E-01    0.553E-01
RMM:   3    -0.116568800713E+04    0.49779E-03   -0.43739E-03  6534   0.879E-02    0.360E-01
RMM:   4    -0.116568789657E+04    0.11055E-03   -0.17868E-03  6341   0.400E-02    0.216E-01
RMM:   5    -0.116568777878E+04    0.11779E-03   -0.73969E-04  5608   0.257E-02    0.546E-02
RMM:   6    -0.116568779435E+04   -0.15564E-04   -0.10615E-04  4070   0.107E-02    0.492E-02
RMM:   7    -0.116568780629E+04   -0.11941E-04   -0.45564E-05  3724   0.698E-03    0.271E-02
RMM:   8    -0.116568782216E+04   -0.15873E-04   -0.39934E-05  3615   0.697E-03
   7 F= -.11656878E+04 E0= -.11656836E+04  d E =-.115897E+00  mag=     1.9744
       N       E                     dE             d eps       ncg     rms          rms(c)
DAV:   1    -0.116565634062E+04    0.31466E-01   -0.13320E+01  6368   0.435E+00    0.115E+00
RMM:   2    -0.116568772376E+04   -0.31383E-01   -0.39971E-01  6148   0.783E-01    0.112E+00
RMM:   3    -0.116568563049E+04    0.20933E-02   -0.17493E-02  6527   0.176E-01    0.730E-01
RMM:   4    -0.116568501425E+04    0.61625E-03   -0.67449E-03  6785   0.796E-02    0.433E-01
RMM:   5    -0.116568465699E+04    0.35726E-03   -0.29951E-03  6639   0.514E-02    0.112E-01
RMM:   6    -0.116568471699E+04   -0.59995E-04   -0.52784E-04  5672   0.216E-02    0.935E-02
RMM:   7    -0.116568475381E+04   -0.36825E-04   -0.18250E-04  4426   0.119E-02    0.609E-02
RMM:   8    -0.116568482192E+04   -0.68110E-04   -0.16573E-04  4116   0.124E-02
   8 F= -.11656848E+04 E0= -.11656817E+04  d E =-.112897E+00  mag=     1.9798
       N       E                     dE             d eps       ncg     rms          rms(c)
DAV:   1    -0.116568309790E+04    0.16559E-02   -0.42360E+00  6480   0.246E+00    0.648E-01
RMM:   2    -0.116569302473E+04   -0.99268E-02   -0.12683E-01  6148   0.443E-01    0.620E-01
RMM:   3    -0.116569234552E+04    0.67921E-03   -0.54916E-03  6341   0.996E-02    0.402E-01
RMM:   4    -0.116569211745E+04    0.22807E-03   -0.21215E-03  6427   0.450E-02    0.234E-01
RMM:   5    -0.116569198885E+04    0.12860E-03   -0.81301E-04  5759   0.269E-02    0.686E-02
RMM:   6    -0.116569199737E+04   -0.85201E-05   -0.15703E-04  4202   0.128E-02    0.535E-02
RMM:   7    -0.116569200406E+04   -0.66943E-05   -0.45877E-05  3682   0.695E-03    0.358E-02
RMM:   8    -0.116569202569E+04   -0.21628E-04   -0.52811E-05  3651   0.766E-03
   9 F= -.11656920E+04 E0= -.11656885E+04  d E =-.120100E+00  mag=     1.9775
       N       E                     dE             d eps       ncg     rms          rms(c)
DAV:   1    -0.116568079129E+04    0.11213E-01   -0.22442E+01  6400   0.558E+00    0.132E+00
RMM:   2    -0.116573738638E+04   -0.56595E-01   -0.65582E-01  6148   0.100E+00    0.142E+00
RMM:   3    -0.116573422488E+04    0.31615E-02   -0.29536E-02  6520   0.226E-01    0.933E-01
RMM:   4    -0.116573291167E+04    0.13132E-02   -0.10476E-02  6807   0.101E-01    0.552E-01
RMM:   5    -0.116573286435E+04    0.47322E-04   -0.59485E-03  6584   0.731E-02    0.160E-01
RMM:   6    -0.116573309953E+04   -0.23518E-03   -0.92253E-04  6228   0.282E-02    0.127E-01
RMM:   7    -0.116573326861E+04   -0.16908E-03   -0.35722E-04  5018   0.167E-02    0.772E-02
RMM:   8    -0.116573340623E+04   -0.13762E-03   -0.26264E-04  4504   0.162E-02    0.322E-02
RMM:   9    -0.116573340780E+04   -0.15739E-05   -0.65709E-05  3802   0.816E-03
  10 F= -.11657334E+04 E0= -.11657312E+04  d E =-.413821E-01  mag=     1.9808
       N       E                     dE             d eps       ncg     rms          rms(c)
DAV:   1    -0.116573212906E+04    0.12772E-02   -0.11306E+00  6720   0.125E+00    0.295E-01
RMM:   2    -0.116573497974E+04   -0.28507E-02   -0.32933E-02  6149   0.225E-01    0.312E-01
RMM:   3    -0.116573483215E+04    0.14759E-03   -0.15428E-03  6380   0.511E-02    0.209E-01
RMM:   4    -0.116573475746E+04    0.74689E-04   -0.57059E-04  5324   0.233E-02    0.114E-01
RMM:   5    -0.116573477174E+04   -0.14277E-04   -0.23915E-04  4434   0.167E-02    0.433E-02
RMM:   6    -0.116573478434E+04   -0.12598E-04   -0.62662E-05  3770   0.874E-03    0.322E-02
RMM:   7    -0.116573478938E+04   -0.50398E-05   -0.22507E-05  3525   0.538E-03    0.246E-02
RMM:   8    -0.116573480175E+04   -0.12372E-04   -0.28378E-05  3528   0.551E-03
  11 F= -.11657348E+04 E0= -.11657327E+04  d E =-.427761E-01  mag=     1.9811
       N       E                     dE             d eps       ncg     rms          rms(c)
DAV:   1    -0.116574958572E+04   -0.14796E-01   -0.91502E+00  6448   0.344E+00    0.881E-01
RMM:   2    -0.116577175656E+04   -0.22171E-01   -0.25790E-01  6148   0.628E-01    0.988E-01
RMM:   3    -0.116577019481E+04    0.15618E-02   -0.11458E-02  6641   0.135E-01    0.694E-01
RMM:   4    -0.116576894197E+04    0.12528E-02   -0.52410E-03  6438   0.697E-02    0.347E-01
RMM:   5    -0.116576874804E+04    0.19393E-03   -0.19280E-03  6100   0.426E-02    0.111E-01
RMM:   6    -0.116576874009E+04    0.79495E-05   -0.39315E-04  4917   0.185E-02    0.708E-02
RMM:   7    -0.116576874236E+04   -0.22677E-05   -0.69610E-05  3929   0.879E-03    0.532E-02
RMM:   8    -0.116576877115E+04   -0.28792E-04   -0.84617E-05  3764   0.940E-03
  12 F= -.11657688E+04 E0= -.11657669E+04  d E =-.339694E-01  mag=     1.9787
       N       E                     dE             d eps       ncg     rms          rms(c)
DAV:   1    -0.116576864544E+04    0.96920E-04   -0.23914E+00  6432   0.176E+00    0.448E-01
RMM:   2    -0.116577434619E+04   -0.57008E-02   -0.67894E-02  6148   0.322E-01    0.502E-01
RMM:   3    -0.116577393165E+04    0.41455E-03   -0.30066E-03  6669   0.691E-02    0.355E-01
RMM:   4    -0.116577359104E+04    0.34061E-03   -0.14083E-03  5747   0.361E-02    0.173E-01
RMM:   5    -0.116577352729E+04    0.63749E-04   -0.48124E-04  5250   0.216E-02    0.598E-02
RMM:   6    -0.116577352553E+04    0.17655E-05   -0.10063E-04  3994   0.105E-02    0.372E-02
RMM:   7    -0.116577352640E+04   -0.87013E-06   -0.27235E-05  3550   0.553E-03    0.256E-02
RMM:   8    -0.116577353278E+04   -0.63852E-05   -0.25372E-05  3489   0.556E-03
  13 F= -.11657735E+04 E0= -.11657717E+04  d E =-.387310E-01  mag=     1.9774
       N       E                     dE             d eps       ncg     rms          rms(c)
DAV:   1    -0.116577417722E+04   -0.65082E-03   -0.10502E+01  6464   0.373E+00    0.872E-01
RMM:   2    -0.116580351815E+04   -0.29341E-01   -0.30228E-01  6148   0.672E-01    0.955E-01
RMM:   3    -0.116580168477E+04    0.18334E-02   -0.13238E-02  6562   0.148E-01    0.632E-01
RMM:   4    -0.116580069707E+04    0.98770E-03   -0.49754E-03  6701   0.675E-02    0.322E-01
RMM:   5    -0.116580082283E+04   -0.12576E-03   -0.22118E-03  6398   0.448E-02    0.115E-01
RMM:   6    -0.116580088716E+04   -0.64329E-04   -0.44445E-04  5031   0.206E-02    0.735E-02
RMM:   7    -0.116580089556E+04   -0.83966E-05   -0.10220E-04  3954   0.103E-02    0.567E-02
RMM:   8    -0.116580094289E+04   -0.47335E-04   -0.95224E-05  3824   0.100E-02
  14 F= -.11658009E+04 E0= -.11657992E+04  d E =-.274101E-01  mag=     1.9753
       N       E                     dE             d eps       ncg     rms          rms(c)
DAV:   1    -0.116579816144E+04    0.27341E-02   -0.32663E+00  6464   0.208E+00    0.483E-01
RMM:   2    -0.116580692237E+04   -0.87609E-02   -0.94408E-02  6148   0.376E-01    0.514E-01
RMM:   3    -0.116580637066E+04    0.55171E-03   -0.41204E-03  6574   0.822E-02    0.341E-01
RMM:   4    -0.116580606119E+04    0.30948E-03   -0.15131E-03  6194   0.369E-02    0.176E-01
RMM:   5    -0.116580605737E+04    0.38144E-05   -0.64109E-04  5379   0.244E-02    0.632E-02
RMM:   6    -0.116580606889E+04   -0.11515E-04   -0.11586E-04  3979   0.119E-02    0.396E-02
RMM:   7    -0.116580606980E+04   -0.90936E-06   -0.37365E-05  3665   0.644E-03    0.281E-02
RMM:   8    -0.116580608014E+04   -0.10339E-04   -0.29924E-05  3552   0.625E-03
  15 F= -.11658061E+04 E0= -.11658043E+04  d E =-.325474E-01  mag=     1.9741
       N       E                     dE             d eps       ncg     rms          rms(c)
DAV:   1    -0.116580515464E+04    0.91516E-03   -0.79032E+00  6384   0.327E+00    0.759E-01
RMM:   2    -0.116582448211E+04   -0.19327E-01   -0.23255E-01  6148   0.583E-01    0.733E-01
RMM:   3    -0.116582311445E+04    0.13677E-02   -0.94073E-03  6600   0.128E-01    0.503E-01
RMM:   4    -0.116582250210E+04    0.61236E-03   -0.33728E-03  6627   0.544E-02    0.312E-01
RMM:   5    -0.116582202001E+04    0.48208E-03   -0.17264E-03  6354   0.366E-02    0.857E-02
RMM:   6    -0.116582198874E+04    0.31275E-04   -0.21693E-04  4294   0.148E-02    0.536E-02
RMM:   7    -0.116582198042E+04    0.83133E-05   -0.71996E-05  3752   0.912E-03    0.349E-02
RMM:   8    -0.116582198475E+04   -0.43242E-05   -0.48061E-05  3628   0.753E-03
  16 F= -.11658220E+04 E0= -.11658203E+04  d E =-.159046E-01  mag=     1.9748
       N       E                     dE             d eps       ncg     rms          rms(c)
DAV:   1    -0.116582166911E+04    0.31132E-03   -0.42571E-01  6704   0.758E-01    0.177E-01
RMM:   2    -0.116582272545E+04   -0.10563E-02   -0.12651E-02  6148   0.136E-01    0.170E-01
RMM:   3    -0.116582264558E+04    0.79869E-04   -0.47893E-04  5006   0.300E-02    0.118E-01
RMM:   4    -0.116582261265E+04    0.32930E-04   -0.17659E-04  3935   0.141E-02    0.731E-02
RMM:   5    -0.116582259050E+04    0.22146E-04   -0.97410E-05  3863   0.102E-02    0.234E-02
RMM:   6    -0.116582259038E+04    0.12528E-06   -0.25315E-05  3484   0.599E-03    0.127E-02
RMM:   7    -0.116582259090E+04   -0.52124E-06   -0.11215E-05  3091   0.359E-03    0.104E-02
RMM:   8    -0.116582259145E+04   -0.55136E-06   -0.60338E-06  2939   0.314E-03
  17 F= -.11658226E+04 E0= -.11658209E+04  d E =-.165113E-01  mag=     1.9751
       N       E                     dE             d eps       ncg     rms          rms(c)
DAV:   1    -0.116582114631E+04    0.14446E-02   -0.55863E+00  6400   0.272E+00    0.602E-01
RMM:   2    -0.116583321012E+04   -0.12064E-01   -0.14380E-01  6148   0.452E-01    0.437E-01
RMM:   3    -0.116583257518E+04    0.63494E-03   -0.58994E-03  6195   0.109E-01    0.276E-01
RMM:   4    -0.116583222032E+04    0.35485E-03   -0.22307E-03  6397   0.447E-02    0.126E-01
RMM:   5    -0.116583211621E+04    0.10411E-03   -0.46691E-04  5481   0.193E-02    0.420E-02
RMM:   6    -0.116583212048E+04   -0.42658E-05   -0.79386E-05  3696   0.935E-03    0.274E-02
RMM:   7    -0.116583212249E+04   -0.20075E-05   -0.40932E-05  3547   0.636E-03    0.165E-02
RMM:   8    -0.116583212503E+04   -0.25470E-05   -0.23828E-05  3465   0.536E-03
  18 F= -.11658321E+04 E0= -.11658305E+04  d E =-.953358E-02  mag=     1.9762
       N       E                     dE             d eps       ncg     rms          rms(c)
DAV:   1    -0.116583123011E+04    0.89237E-03   -0.87299E-01  6432   0.108E+00    0.237E-01
RMM:   2    -0.116583313741E+04   -0.19073E-02   -0.22626E-02  6148   0.179E-01    0.172E-01
RMM:   3    -0.116583303401E+04    0.10340E-03   -0.94413E-04  5881   0.433E-02    0.109E-01
RMM:   4    -0.116583297669E+04    0.57318E-04   -0.34022E-04  4750   0.181E-02    0.511E-02
RMM:   5    -0.116583296227E+04    0.14421E-04   -0.68042E-05  3629   0.917E-03    0.162E-02
RMM:   6    -0.116583296474E+04   -0.24744E-05   -0.22890E-05  3474   0.552E-03    0.111E-02
RMM:   7    -0.116583296556E+04   -0.81952E-06   -0.12262E-05  3269   0.384E-03    0.761E-03
RMM:   8    -0.116583296627E+04   -0.71034E-06   -0.68071E-06  2945   0.312E-03
  19 F= -.11658330E+04 E0= -.11658314E+04  d E =-.103748E-01  mag=     1.9767
       N       E                     dE             d eps       ncg     rms          rms(c)
DAV:   1    -0.116583052954E+04    0.24360E-02   -0.45862E+00  6432   0.245E+00    0.426E-01
RMM:   2    -0.116583976016E+04   -0.92306E-02   -0.11201E-01  6148   0.402E-01    0.338E-01
RMM:   3    -0.116583935411E+04    0.40605E-03   -0.45468E-03  6272   0.933E-02    0.222E-01
RMM:   4    -0.116583907183E+04    0.28229E-03   -0.16823E-03  6031   0.374E-02    0.141E-01
RMM:   5    -0.116583886854E+04    0.20328E-03   -0.48674E-04  5352   0.195E-02    0.350E-02
RMM:   6    -0.116583886895E+04   -0.41224E-06   -0.60605E-05  3691   0.848E-03    0.277E-02
RMM:   7    -0.116583887013E+04   -0.11770E-05   -0.31371E-05  3533   0.626E-03    0.169E-02
RMM:   8    -0.116583887304E+04   -0.29123E-05   -0.22035E-05  3490   0.525E-03
  20 F= -.11658389E+04 E0= -.11658373E+04  d E =-.590677E-02  mag=     1.9766
       N       E                     dE             d eps       ncg     rms          rms(c)
DAV:   1    -0.116583871019E+04    0.15994E-03   -0.24962E-01  6672   0.571E-01    0.987E-02
RMM:   2    -0.116583921686E+04   -0.50667E-03   -0.61557E-03  6084   0.940E-02    0.795E-02
RMM:   3    -0.116583918931E+04    0.27547E-04   -0.22049E-04  4097   0.221E-02    0.536E-02
RMM:   4    -0.116583917317E+04    0.16140E-04   -0.91826E-05  3599   0.104E-02    0.298E-02
RMM:   5    -0.116583916580E+04    0.73694E-05   -0.33428E-05  3518   0.611E-03    0.968E-03
RMM:   6    -0.116583916649E+04   -0.68142E-06   -0.10955E-05  3279   0.379E-03    0.720E-03
RMM:   7    -0.116583916694E+04   -0.45568E-06   -0.50281E-06  2533   0.272E-03    0.475E-03
RMM:   8    -0.116583916729E+04   -0.34584E-06   -0.27311E-06  2160   0.241E-03
  21 F= -.11658392E+04 E0= -.11658376E+04  d E =-.620101E-02  mag=     1.9765
       N       E                     dE             d eps       ncg     rms          rms(c)
DAV:   1    -0.116583645021E+04    0.27167E-02   -0.36517E+00  6368   0.223E+00    0.396E-01
RMM:   2    -0.116584409694E+04   -0.76467E-02   -0.93224E-02  6148   0.375E-01    0.317E-01
RMM:   3    -0.116584379737E+04    0.29957E-03   -0.38051E-03  6410   0.854E-02    0.211E-01
RMM:   4    -0.116584356325E+04    0.23412E-03   -0.12364E-03  6124   0.327E-02    0.134E-01
RMM:   5    -0.116584342549E+04    0.13776E-03   -0.44879E-04  5366   0.194E-02    0.307E-02
RMM:   6    -0.116584342289E+04    0.25997E-05   -0.57721E-05  3669   0.854E-03    0.240E-02
RMM:   7    -0.116584342436E+04   -0.14732E-05   -0.29972E-05  3528   0.610E-03    0.146E-02
RMM:   8    -0.116584342647E+04   -0.21076E-05   -0.20598E-05  3471   0.513E-03
  22 F= -.11658434E+04 E0= -.11658418E+04  d E =-.425918E-02  mag=     1.9761
       N       E                     dE             d eps       ncg     rms          rms(c)
DAV:   1    -0.116584336791E+04    0.56451E-04   -0.73323E-02  6640   0.316E-01    0.559E-02
RMM:   2    -0.116584352666E+04   -0.15875E-03   -0.19215E-03  6081   0.535E-02    0.450E-02
RMM:   3    -0.116584351782E+04    0.88384E-05   -0.63422E-05  3550   0.125E-02    0.304E-02
RMM:   4    -0.116584351401E+04    0.38131E-05   -0.30601E-05  3505   0.615E-03    0.170E-02
RMM:   5    -0.116584351247E+04    0.15407E-05   -0.12123E-05  3289   0.369E-03    0.517E-03
RMM:   6    -0.116584351270E+04   -0.22676E-06   -0.34315E-06  2400   0.256E-03    0.323E-03
RMM:   7    -0.116584351282E+04   -0.11944E-06   -0.10968E-06  1615   0.208E-03    0.215E-03
RMM:   8    -0.116584351288E+04   -0.68641E-07   -0.53674E-07  1279   0.203E-03
  23 F= -.11658435E+04 E0= -.11658419E+04  d E =-.434560E-02  mag=     1.9759
       N       E                     dE             d eps       ncg     rms          rms(c)
DAV:   1    -0.116584079945E+04    0.27134E-02   -0.29228E+00  6448   0.202E+00    0.396E-01
RMM:   2    -0.116584707913E+04   -0.62797E-02   -0.77120E-02  6148   0.341E-01    0.301E-01
RMM:   3    -0.116584683372E+04    0.24541E-03   -0.31738E-03  6347   0.793E-02    0.196E-01
RMM:   4    -0.116584670520E+04    0.12852E-03   -0.11410E-03  6264   0.311E-02    0.122E-01
RMM:   5    -0.116584658615E+04    0.11905E-03   -0.33476E-04  4842   0.169E-02    0.339E-02
RMM:   6    -0.116584658642E+04   -0.27615E-06   -0.55630E-05  3596   0.830E-03    0.212E-02
RMM:   7    -0.116584658788E+04   -0.14581E-05   -0.31852E-05  3521   0.642E-03    0.154E-02
RMM:   8    -0.116584658948E+04   -0.16009E-05   -0.19052E-05  3403   0.482E-03
  24 F= -.11658466E+04 E0= -.11658450E+04  d E =-.307660E-02  mag=     1.9756
       N       E                     dE             d eps       ncg     rms          rms(c)
DAV:   1    -0.116584650353E+04    0.84348E-04   -0.69543E-02  6560   0.312E-01    0.612E-02
RMM:   2    -0.116584665752E+04   -0.15399E-03   -0.18817E-03  6103   0.529E-02    0.465E-02
RMM:   3    -0.116584664896E+04    0.85639E-05   -0.61930E-05  3533   0.125E-02    0.308E-02
RMM:   4    -0.116584664677E+04    0.21854E-05   -0.32543E-05  3517   0.622E-03    0.168E-02
RMM:   5    -0.116584664514E+04    0.16339E-05   -0.12237E-05  3342   0.365E-03    0.529E-03
RMM:   6    -0.116584664537E+04   -0.23578E-06   -0.33758E-06  2372   0.251E-03    0.354E-03
RMM:   7    -0.116584664548E+04   -0.10766E-06   -0.10575E-06  1535   0.206E-03    0.222E-03
RMM:   8    -0.116584664554E+04   -0.56942E-07   -0.52958E-07  1224   0.201E-03
  25 F= -.11658466E+04 E0= -.11658450E+04  d E =-.313265E-02  mag=     1.9755
       N       E                     dE             d eps       ncg     rms          rms(c)
DAV:   1    -0.116584452587E+04    0.21196E-02   -0.21943E+00  6352   0.174E+00    0.344E-01
RMM:   2    -0.116584922912E+04   -0.47033E-02   -0.57699E-02  6148   0.293E-01    0.273E-01
RMM:   3    -0.116584902413E+04    0.20499E-03   -0.23208E-03  6260   0.680E-02    0.177E-01
RMM:   4    -0.116584890564E+04    0.11849E-03   -0.85907E-04  5957   0.271E-02    0.106E-01
RMM:   5    -0.116584881147E+04    0.94164E-04   -0.21612E-04  4315   0.148E-02    0.243E-02
RMM:   6    -0.116584881622E+04   -0.47428E-05   -0.48236E-05  3558   0.789E-03    0.148E-02
RMM:   7    -0.116584881791E+04   -0.16971E-05   -0.25155E-05  3450   0.590E-03    0.130E-02
RMM:   8    -0.116584881918E+04   -0.12631E-05   -0.15385E-05  3296   0.423E-03
  26 F= -.11658488E+04 E0= -.11658472E+04  d E =-.217364E-02  mag=     1.9756
       N       E                     dE             d eps       ncg     rms          rms(c)
DAV:   1    -0.116584875405E+04    0.63858E-04   -0.47504E-02  6544   0.256E-01    0.506E-02
RMM:   2    -0.116584886074E+04   -0.10669E-03   -0.12957E-03  6073   0.436E-02    0.404E-02
RMM:   3    -0.116584885438E+04    0.63651E-05   -0.43041E-05  3494   0.104E-02    0.264E-02
RMM:   4    -0.116584885272E+04    0.16549E-05   -0.22061E-05  3430   0.516E-03    0.142E-02
RMM:   5    -0.116584885151E+04    0.12129E-05   -0.78140E-06  3077   0.310E-03    0.390E-03
RMM:   6    -0.116584885169E+04   -0.18584E-06   -0.21407E-06  1895   0.224E-03    0.232E-03
RMM:   7    -0.116584885177E+04   -0.71959E-07   -0.63204E-07  1105   0.194E-03    0.154E-03
RMM:   8    -0.116584885179E+04   -0.25277E-07   -0.23543E-07   911   0.190E-03
  27 F= -.11658489E+04 E0= -.11658472E+04  d E =-.220625E-02  mag=     1.9757
       N       E                     dE             d eps       ncg     rms          rms(c)
DAV:   1    -0.116584804348E+04    0.80829E-03   -0.89465E-01  6432   0.109E+00    0.208E-01
RMM:   2    -0.116584987515E+04   -0.18317E-02   -0.23434E-02  6140   0.187E-01    0.182E-01
RMM:   3    -0.116584978038E+04    0.94772E-04   -0.94355E-04  5975   0.418E-02    0.121E-01
RMM:   4    -0.116584969774E+04    0.82641E-04   -0.36273E-04  5043   0.181E-02    0.698E-02
RMM:   5    -0.116584965578E+04    0.41954E-04   -0.89877E-05  3844   0.103E-02    0.175E-02
RMM:   6    -0.116584965765E+04   -0.18699E-05   -0.21712E-05  3452   0.543E-03    0.120E-02
RMM:   7    -0.116584965854E+04   -0.88610E-06   -0.11286E-05  3309   0.389E-03    0.903E-03
RMM:   8    -0.116584965906E+04   -0.52058E-06   -0.61500E-06  3015   0.303E-03
  28 F= -.11658497E+04 E0= -.11658481E+04  d E =-.807267E-03  mag=     1.9756
       N       E                     dE             d eps       ncg     rms          rms(c)
DAV:   1    -0.116584964731E+04    0.11231E-04   -0.14550E-02  6560   0.139E-01    0.269E-02
RMM:   2    -0.116584967446E+04   -0.27151E-04   -0.35564E-04  4218   0.240E-02    0.257E-02
RMM:   3    -0.116584967503E+04   -0.57314E-06   -0.20814E-05  3205   0.728E-03    0.145E-02
RMM:   4    -0.116584967421E+04    0.81999E-06   -0.52036E-06  2627   0.295E-03    0.126E-02
RMM:   5    -0.116584967313E+04    0.10815E-05   -0.14978E-06  1760   0.209E-03    0.288E-03
RMM:   6    -0.116584967318E+04   -0.47541E-07   -0.65396E-07   837   0.176E-03    0.143E-03
RMM:   7    -0.116584967317E+04    0.45693E-08   -0.23949E-08   495   0.153E-03    0.881E-04
RMM:   8    -0.116584967318E+04   -0.83382E-08   -0.59451E-08   498   0.153E-03
  29 F= -.11658497E+04 E0= -.11658481E+04  d E =-.821390E-03  mag=     1.9756
