       N       E                     dE             d eps       ncg     rms          rms(c)
DAV:   1    -0.116312850193E+04   -0.11631E+04   -0.19542E-05  8208   0.107E-02    0.120E-02
RMM:   2    -0.116312852879E+04   -0.26865E-04   -0.22578E-05  5773   0.659E-03    0.164E-02
RMM:   3    -0.116312853251E+04   -0.37134E-05   -0.65113E-06  3582   0.289E-03    0.146E-02
RMM:   4    -0.116312852553E+04    0.69808E-05   -0.17095E-06  2966   0.249E-03    0.145E-02
RMM:   5    -0.116312852869E+04   -0.31605E-05   -0.87951E-07  2107   0.195E-03    0.145E-02
RMM:   6    -0.116312856465E+04   -0.35965E-04   -0.17098E-05  4399   0.502E-03    0.181E-02
RMM:   7    -0.116312860121E+04   -0.36555E-04   -0.25499E-05  4500   0.508E-03    0.220E-02
RMM:   8    -0.116312859171E+04    0.95004E-05   -0.34712E-06  3043   0.339E-03
   1 F= -.11631286E+04 E0= -.11631286E+04  d E =-.116313E+04  mag=     6.0000
       N       E                     dE             d eps       ncg     rms          rms(c)
DAV:   1    -0.116312920492E+04   -0.60371E-03   -0.55511E-01 12656   0.860E-01    0.198E-01
RMM:   2    -0.116313046210E+04   -0.12572E-02   -0.15449E-02 12311   0.159E-01    0.181E-01
RMM:   3    -0.116313042365E+04    0.38451E-04   -0.73487E-04 11162   0.523E-02    0.119E-01
RMM:   4    -0.116313038250E+04    0.41151E-04   -0.29955E-04  9221   0.207E-02    0.624E-02
RMM:   5    -0.116313039611E+04   -0.13606E-04   -0.93717E-05  7481   0.141E-02    0.214E-02
RMM:   6    -0.116313041181E+04   -0.15700E-04   -0.28197E-05  6912   0.724E-03    0.175E-02
RMM:   7    -0.116313042843E+04   -0.16625E-04   -0.14649E-05  6529   0.529E-03    0.159E-02
RMM:   8    -0.116313045278E+04   -0.24352E-04   -0.15630E-05  6348   0.468E-03
   2 F= -.11631305E+04 E0= -.11631305E+04  d E =-.186108E-02  mag=     6.0000
       N       E                     dE             d eps       ncg     rms          rms(c)
DAV:   1    -0.116313107015E+04   -0.64172E-03   -0.14997E-01 12368   0.444E-01    0.103E-01
RMM:   2    -0.116313138422E+04   -0.31406E-03   -0.42069E-03 12210   0.829E-02    0.987E-02
RMM:   3    -0.116313137183E+04    0.12387E-04   -0.18723E-04  7728   0.283E-02    0.676E-02
RMM:   4    -0.116313137832E+04   -0.64866E-05   -0.10278E-04  7209   0.129E-02    0.392E-02
RMM:   5    -0.116313139559E+04   -0.17273E-04   -0.42344E-05  6903   0.775E-03    0.197E-02
RMM:   6    -0.116313140728E+04   -0.11690E-04   -0.13919E-05  6370   0.555E-03    0.158E-02
RMM:   7    -0.116313141892E+04   -0.11639E-04   -0.90111E-06  5259   0.369E-03    0.142E-02
RMM:   8    -0.116313143477E+04   -0.15857E-04   -0.85234E-06  5160   0.365E-03
   3 F= -.11631314E+04 E0= -.11631314E+04  d E =-.981989E-03  mag=     6.0000
       N       E                     dE             d eps       ncg     rms          rms(c)
DAV:   1    -0.116313185919E+04   -0.44027E-03   -0.24290E-01 12472   0.559E-01    0.118E-01
RMM:   2    -0.116313242832E+04   -0.56913E-03   -0.60340E-03 12576   0.969E-02    0.837E-02
RMM:   3    -0.116313242946E+04   -0.11462E-05   -0.27657E-04  8240   0.329E-02    0.547E-02
RMM:   4    -0.116313243456E+04   -0.50945E-05   -0.95392E-05  7146   0.127E-02    0.295E-02
RMM:   5    -0.116313245455E+04   -0.19995E-04   -0.37714E-05  6895   0.792E-03    0.151E-02
RMM:   6    -0.116313246470E+04   -0.10144E-04   -0.14208E-05  6613   0.559E-03    0.134E-02
RMM:   7    -0.116313247612E+04   -0.11421E-04   -0.97168E-06  5673   0.419E-03    0.126E-02
RMM:   8    -0.116313249488E+04   -0.18763E-04   -0.12533E-05  5491   0.421E-03
   4 F= -.11631325E+04 E0= -.11631325E+04  d E =-.106011E-02  mag=     6.0000
       N       E                     dE             d eps       ncg     rms          rms(c)
DAV:   1    -0.116313272668E+04   -0.25056E-03   -0.31698E-01 12512   0.638E-01    0.134E-01
RMM:   2    -0.116313348458E+04   -0.75790E-03   -0.76566E-03 12557   0.108E-01    0.867E-02
RMM:   3    -0.116313349139E+04   -0.68153E-05   -0.36714E-04  8690   0.376E-02    0.558E-02
RMM:   4    -0.116313349245E+04   -0.10548E-05   -0.10615E-04  7143   0.134E-02    0.306E-02
RMM:   5    -0.116313351023E+04   -0.17784E-04   -0.39798E-05  6959   0.858E-03    0.193E-02
RMM:   6    -0.116313351971E+04   -0.94800E-05   -0.16636E-05  6735   0.614E-03    0.131E-02
RMM:   7    -0.116313353141E+04   -0.11702E-04   -0.11636E-05  6061   0.470E-03    0.127E-02
RMM:   8    -0.116313354544E+04   -0.14024E-04   -0.10862E-05  5538   0.413E-03
   5 F= -.11631335E+04 E0= -.11631335E+04  d E =-.105056E-02  mag=     6.0000
       N       E                     dE             d eps       ncg     rms          rms(c)
DAV:   1    -0.116313371358E+04   -0.18217E-03   -0.28118E-01 12568   0.598E-01    0.128E-01
RMM:   2    -0.116313439625E+04   -0.68266E-03   -0.67230E-03 12497   0.101E-01    0.799E-02
RMM:   3    -0.116313440400E+04   -0.77501E-05   -0.32091E-04  8444   0.353E-02    0.511E-02
RMM:   4    -0.116313440530E+04   -0.12999E-05   -0.91690E-05  7102   0.126E-02    0.294E-02
RMM:   5    -0.116313442021E+04   -0.14912E-04   -0.34201E-05  6920   0.810E-03    0.211E-02
RMM:   6    -0.116313442981E+04   -0.96000E-05   -0.16085E-05  6684   0.595E-03    0.124E-02
RMM:   7    -0.116313444001E+04   -0.10202E-04   -0.10639E-05  5742   0.454E-03    0.124E-02
RMM:   8    -0.116313445061E+04   -0.10604E-04   -0.85642E-06  5255   0.376E-03
   6 F= -.11631345E+04 E0= -.11631344E+04  d E =-.905175E-03  mag=     6.0000
       N       E                     dE             d eps       ncg     rms          rms(c)
DAV:   1    -0.116313450424E+04   -0.64226E-04   -0.35082E-01 12480   0.667E-01    0.141E-01
RMM:   2    -0.116313535715E+04   -0.85291E-03   -0.83271E-03 12560   0.112E-01    0.871E-02
RMM:   3    -0.116313536852E+04   -0.11374E-04   -0.40902E-04  8873   0.394E-02    0.553E-02
RMM:   4    -0.116313536630E+04    0.22160E-05   -0.10410E-04  7128   0.136E-02    0.304E-02
RMM:   5    -0.116313538169E+04   -0.15385E-04   -0.40181E-05  6965   0.882E-03    0.207E-02
RMM:   6    -0.116313539075E+04   -0.90612E-05   -0.17690E-05  6745   0.628E-03    0.124E-02
RMM:   7    -0.116313540051E+04   -0.97572E-05   -0.11466E-05  5974   0.479E-03    0.122E-02
RMM:   8    -0.116313541166E+04   -0.11150E-04   -0.96646E-06  5491   0.407E-03
   7 F= -.11631354E+04 E0= -.11631354E+04  d E =-.961044E-03  mag=     6.0000
       N       E                     dE             d eps       ncg     rms          rms(c)
DAV:   1    -0.116313520463E+04    0.19587E-03   -0.46063E-01 12576   0.763E-01    0.160E-01
RMM:   2    -0.116313631499E+04   -0.11104E-02   -0.10876E-02 12556   0.128E-01    0.980E-02
RMM:   3    -0.116313632860E+04   -0.13608E-04   -0.54333E-04  9498   0.448E-02    0.620E-02
RMM:   4    -0.116313632147E+04    0.71205E-05   -0.12851E-04  7266   0.150E-02    0.327E-02
RMM:   5    -0.116313633858E+04   -0.17101E-04   -0.49824E-05  7002   0.977E-03    0.198E-02
RMM:   6    -0.116313634778E+04   -0.92067E-05   -0.20309E-05  6816   0.680E-03    0.126E-02
RMM:   7    -0.116313635837E+04   -0.10587E-04   -0.13493E-05  6275   0.517E-03    0.123E-02
RMM:   8    -0.116313637099E+04   -0.12626E-04   -0.12046E-05  5792   0.451E-03
   8 F= -.11631364E+04 E0= -.11631364E+04  d E =-.959338E-03  mag=     6.0000
       N       E                     dE             d eps       ncg     rms          rms(c)
DAV:   1    -0.116313623506E+04    0.12331E-03   -0.36518E-01 12544   0.681E-01    0.137E-01
RMM:   2    -0.116313710197E+04   -0.86691E-03   -0.86523E-03 12512   0.114E-01    0.852E-02
RMM:   3    -0.116313710767E+04   -0.57049E-05   -0.41705E-04  8853   0.396E-02    0.547E-02
RMM:   4    -0.116313710456E+04    0.31152E-05   -0.10692E-04  7154   0.137E-02    0.291E-02
RMM:   5    -0.116313712032E+04   -0.15766E-04   -0.40849E-05  6990   0.881E-03    0.184E-02
RMM:   6    -0.116313712858E+04   -0.82570E-05   -0.17471E-05  6755   0.629E-03    0.121E-02
RMM:   7    -0.116313713842E+04   -0.98354E-05   -0.11985E-05  5994   0.481E-03    0.118E-02
RMM:   8    -0.116313714997E+04   -0.11551E-04   -0.10634E-05  5532   0.418E-03
   9 F= -.11631371E+04 E0= -.11631371E+04  d E =-.778972E-03  mag=     6.0000
       N       E                     dE             d eps       ncg     rms          rms(c)
DAV:   1    -0.116313716121E+04   -0.22789E-04   -0.21588E-01 12632   0.525E-01    0.104E-01
RMM:   2    -0.116313767079E+04   -0.50958E-03   -0.51456E-03 12457   0.876E-02    0.654E-02
RMM:   3    -0.116313767264E+04   -0.18513E-05   -0.23722E-04  7953   0.308E-02    0.423E-02
RMM:   4    -0.116313767495E+04   -0.23142E-05   -0.73446E-05  7057   0.110E-02    0.233E-02
RMM:   5    -0.116313768726E+04   -0.12309E-04   -0.26894E-05  6864   0.696E-03    0.154E-02
RMM:   6    -0.116313769369E+04   -0.64306E-05   -0.11469E-05  6442   0.521E-03    0.107E-02
RMM:   7    -0.116313770165E+04   -0.79529E-05   -0.87506E-06  5331   0.399E-03    0.102E-02
RMM:   8    -0.116313771143E+04   -0.97873E-05   -0.81007E-06  5194   0.360E-03
  10 F= -.11631377E+04 E0= -.11631377E+04  d E =-.561467E-03  mag=     6.0000
