       N       E                     dE             d eps       ncg     rms          rms(c)
DAV:   1    -0.115906781454E+04   -0.11591E+04   -0.20172E-06  6944   0.198E-03    0.182E-03
RMM:   2    -0.115906781458E+04   -0.45620E-07   -0.85001E-08  1492   0.136E-03    0.122E-03
RMM:   3    -0.115906781461E+04   -0.23079E-07    0.00000E+00   904   0.129E-03    0.801E-04
RMM:   4    -0.115906781465E+04   -0.42928E-07   -0.15950E-08   770   0.132E-03    0.603E-04
RMM:   5    -0.115906781467E+04   -0.21493E-07   -0.11080E-09   709   0.136E-03    0.479E-04
RMM:   6    -0.115906781469E+04   -0.18321E-07   -0.18827E-08   709   0.140E-03    0.324E-04
RMM:   7    -0.115906781470E+04   -0.13708E-07   -0.19726E-08   712   0.146E-03    0.152E-04
RMM:   8    -0.115906781471E+04   -0.33324E-08   -0.19074E-08   625   0.146E-03
   1 F= -.11590678E+04 E0= -.11590678E+04  d E =-.115907E+04  mag=    12.0000
       N       E                     dE             d eps       ncg     rms          rms(c)
DAV:   1    -0.115906802984E+04   -0.21513E-03   -0.15990E-01 12032   0.451E-01    0.962E-02
RMM:   2    -0.115906841624E+04   -0.38640E-03   -0.45200E-03 12100   0.853E-02    0.766E-02
RMM:   3    -0.115906840416E+04    0.12077E-04   -0.16073E-04  7650   0.231E-02    0.521E-02
RMM:   4    -0.115906840219E+04    0.19702E-05   -0.71823E-05  7080   0.114E-02    0.330E-02
RMM:   5    -0.115906841334E+04   -0.11150E-04   -0.26714E-05  6387   0.725E-03    0.315E-02
RMM:   6    -0.115906842102E+04   -0.76725E-05   -0.95979E-06  5843   0.446E-03    0.147E-02
RMM:   7    -0.115906842814E+04   -0.71226E-05   -0.50411E-06  5296   0.326E-03    0.134E-02
RMM:   8    -0.115906844105E+04   -0.12914E-04   -0.83527E-06  5616   0.380E-03
   2 F= -.11590684E+04 E0= -.11590684E+04  d E =-.626346E-03  mag=    12.0000
       N       E                     dE             d eps       ncg     rms          rms(c)
DAV:   1    -0.115906845509E+04   -0.26949E-04   -0.46865E-02 12080   0.244E-01    0.529E-02
RMM:   2    -0.115906857748E+04   -0.12240E-03   -0.13329E-03 11562   0.469E-02    0.431E-02
RMM:   3    -0.115906857961E+04   -0.21298E-05   -0.50727E-05  7080   0.132E-02    0.306E-02
RMM:   4    -0.115906858911E+04   -0.94957E-05   -0.25074E-05  6686   0.674E-03    0.211E-02
RMM:   5    -0.115906859941E+04   -0.10300E-04   -0.10796E-05  5945   0.465E-03    0.220E-02
RMM:   6    -0.115906860553E+04   -0.61199E-05   -0.42389E-06  5092   0.304E-03    0.120E-02
RMM:   7    -0.115906861200E+04   -0.64731E-05   -0.31454E-06  4749   0.268E-03    0.109E-02
RMM:   8    -0.115906862748E+04   -0.15473E-04   -0.12877E-05  5980   0.444E-03
   3 F= -.11590686E+04 E0= -.11590686E+04  d E =-.812768E-03  mag=    12.0000
       N       E                     dE             d eps       ncg     rms          rms(c)
DAV:   1    -0.115906887812E+04   -0.26612E-03   -0.84963E-02 12032   0.331E-01    0.653E-02
RMM:   2    -0.115906909166E+04   -0.21354E-03   -0.22587E-03 12047   0.605E-02    0.483E-02
RMM:   3    -0.115906909445E+04   -0.27913E-05   -0.82530E-05  7110   0.176E-02    0.336E-02
RMM:   4    -0.115906910405E+04   -0.96006E-05   -0.37475E-05  6798   0.815E-03    0.239E-02
RMM:   5    -0.115906911223E+04   -0.81762E-05   -0.11840E-05  5868   0.507E-03    0.217E-02
RMM:   6    -0.115906911927E+04   -0.70391E-05   -0.59338E-06  5232   0.329E-03    0.117E-02
RMM:   7    -0.115906912599E+04   -0.67240E-05   -0.37223E-06  4742   0.298E-03    0.112E-02
RMM:   8    -0.115906914163E+04   -0.15636E-04   -0.14512E-05  5950   0.464E-03
   4 F= -.11590691E+04 E0= -.11590691E+04  d E =-.514153E-03  mag=    12.0000
       N       E                     dE             d eps       ncg     rms          rms(c)
DAV:   1    -0.115906786272E+04    0.12633E-02   -0.76339E-01 12544   0.994E-01    0.194E-01
RMM:   2    -0.115906973425E+04   -0.18715E-02   -0.20185E-02 12268   0.180E-01    0.143E-01
RMM:   3    -0.115906975335E+04   -0.19106E-04   -0.94000E-04 11715   0.517E-02    0.980E-02
RMM:   4    -0.115906977271E+04   -0.19353E-04   -0.27882E-04  9079   0.196E-02    0.563E-02
RMM:   5    -0.115906983120E+04   -0.58497E-04   -0.77937E-05  7423   0.123E-02    0.484E-02
RMM:   6    -0.115906985925E+04   -0.28047E-04   -0.25026E-05  6968   0.720E-03    0.294E-02
RMM:   7    -0.115906990108E+04   -0.41831E-04   -0.20112E-05  6865   0.582E-03    0.257E-02
RMM:   8    -0.115906998219E+04   -0.81109E-04   -0.61734E-05  7257   0.913E-03
   5 F= -.11590700E+04 E0= -.11590700E+04  d E =-.135471E-02  mag=    12.0000
       N       E                     dE             d eps       ncg     rms          rms(c)
DAV:   1    -0.115907019102E+04   -0.28994E-03   -0.64562E-02 12368   0.289E-01    0.545E-02
RMM:   2    -0.115907036542E+04   -0.17440E-03   -0.16662E-03 11991   0.516E-02    0.396E-02
RMM:   3    -0.115907037634E+04   -0.10915E-04   -0.64249E-05  7048   0.150E-02    0.297E-02
RMM:   4    -0.115907039681E+04   -0.20479E-04   -0.29158E-05  6807   0.707E-03    0.245E-02
RMM:   5    -0.115907041267E+04   -0.15860E-04   -0.12159E-05  6116   0.487E-03    0.208E-02
RMM:   6    -0.115907042603E+04   -0.13358E-04   -0.77822E-06  5671   0.353E-03    0.145E-02
RMM:   7    -0.115907044003E+04   -0.13997E-04   -0.67220E-06  5718   0.351E-03    0.130E-02
RMM:   8    -0.115907047373E+04   -0.33699E-04   -0.45516E-05  6957   0.759E-03
   6 F= -.11590705E+04 E0= -.11590705E+04  d E =-.491537E-03  mag=    12.0000
       N       E                     dE             d eps       ncg     rms          rms(c)
DAV:   1    -0.115906999495E+04    0.44508E-03   -0.57776E-01 12480   0.866E-01    0.156E-01
RMM:   2    -0.115907138897E+04   -0.13940E-02   -0.14605E-02 12252   0.152E-01    0.107E-01
RMM:   3    -0.115907140655E+04   -0.17580E-04   -0.66674E-04 10650   0.454E-02    0.747E-02
RMM:   4    -0.115907142208E+04   -0.15528E-04   -0.18359E-04  7810   0.164E-02    0.478E-02
RMM:   5    -0.115907145591E+04   -0.33827E-04   -0.51169E-05  7145   0.990E-03    0.389E-02
RMM:   6    -0.115907147687E+04   -0.20962E-04   -0.20855E-05  6885   0.657E-03    0.226E-02
RMM:   7    -0.115907150209E+04   -0.25221E-04   -0.15047E-05  6641   0.509E-03    0.203E-02
RMM:   8    -0.115907154546E+04   -0.43369E-04   -0.30791E-05  6919   0.683E-03
   7 F= -.11590715E+04 E0= -.11590715E+04  d E =-.156327E-02  mag=    12.0000
       N       E                     dE             d eps       ncg     rms          rms(c)
DAV:   1    -0.115906683206E+04    0.46700E-02   -0.23105E+00 12640   0.173E+00    0.311E-01
RMM:   2    -0.115907241223E+04   -0.55802E-02   -0.58401E-02 12296   0.302E-01    0.215E-01
RMM:   3    -0.115907248542E+04   -0.73198E-04   -0.27184E-03 12576   0.884E-02    0.150E-01
RMM:   4    -0.115907255422E+04   -0.68793E-04   -0.82199E-04 11813   0.314E-02    0.856E-02
RMM:   5    -0.115907269894E+04   -0.14472E-03   -0.19472E-04  8312   0.193E-02    0.603E-02
RMM:   6    -0.115907277199E+04   -0.73047E-04   -0.61755E-05  7284   0.110E-02    0.443E-02
RMM:   7    -0.115907287621E+04   -0.10422E-03   -0.51017E-05  7236   0.949E-03    0.378E-02
RMM:   8    -0.115907307943E+04   -0.20322E-03   -0.17803E-04  8075   0.151E-02    0.303E-02
RMM:   9    -0.115907317020E+04   -0.90768E-04   -0.10587E-04  7572   0.116E-02
   8 F= -.11590732E+04 E0= -.11590732E+04  d E =-.318801E-02  mag=    12.0000
       N       E                     dE             d eps       ncg     rms          rms(c)
DAV:   1    -0.115907201880E+04    0.10606E-02   -0.55838E-01 12544   0.851E-01    0.152E-01
RMM:   2    -0.115907337336E+04   -0.13546E-02   -0.14058E-02 12238   0.148E-01    0.106E-01
RMM:   3    -0.115907339519E+04   -0.21833E-04   -0.62600E-04 10602   0.423E-02    0.751E-02
RMM:   4    -0.115907343119E+04   -0.35995E-04   -0.18745E-04  7880   0.163E-02    0.450E-02
RMM:   5    -0.115907348380E+04   -0.52611E-04   -0.59767E-05  7242   0.102E-02    0.316E-02
RMM:   6    -0.115907350748E+04   -0.23683E-04   -0.21546E-05  6910   0.651E-03    0.260E-02
RMM:   7    -0.115907354794E+04   -0.40460E-04   -0.22625E-05  6814   0.592E-03    0.219E-02
RMM:   8    -0.115907361846E+04   -0.70517E-04   -0.68424E-05  7288   0.953E-03
   9 F= -.11590736E+04 E0= -.11590736E+04  d E =-.363627E-02  mag=    12.0000
       N       E                     dE             d eps       ncg     rms          rms(c)
DAV:   1    -0.115907377165E+04   -0.22371E-03   -0.10467E-01 12608   0.368E-01    0.653E-02
RMM:   2    -0.115907403272E+04   -0.26107E-03   -0.26481E-03 12102   0.643E-02    0.458E-02
RMM:   3    -0.115907403811E+04   -0.53953E-05   -0.99037E-05  7197   0.187E-02    0.332E-02
RMM:   4    -0.115907405148E+04   -0.13366E-04   -0.40429E-05  6922   0.825E-03    0.288E-02
RMM:   5    -0.115907406181E+04   -0.10327E-04   -0.14220E-05  6309   0.554E-03    0.202E-02
RMM:   6    -0.115907407312E+04   -0.11318E-04   -0.98634E-06  6080   0.388E-03    0.132E-02
RMM:   7    -0.115907408213E+04   -0.90082E-05   -0.56847E-06  5638   0.351E-03    0.122E-02
RMM:   8    -0.115907410317E+04   -0.21035E-04   -0.20434E-05  6312   0.529E-03
  10 F= -.11590741E+04 E0= -.11590741E+04  d E =-.484709E-03  mag=    12.0000
       N       E                     dE             d eps       ncg     rms          rms(c)
DAV:   1    -0.115907270369E+04    0.13784E-02   -0.93876E-01 12672   0.110E+00    0.194E-01
RMM:   2    -0.115907494184E+04   -0.22381E-02   -0.23491E-02 12265   0.191E-01    0.132E-01
RMM:   3    -0.115907496694E+04   -0.25097E-04   -0.11090E-03 11681   0.578E-02    0.918E-02
RMM:   4    -0.115907497509E+04   -0.81547E-05   -0.28549E-04  8666   0.194E-02    0.533E-02
RMM:   5    -0.115907502354E+04   -0.48449E-04   -0.84539E-05  7358   0.128E-02    0.489E-02
RMM:   6    -0.115907504568E+04   -0.22138E-04   -0.29165E-05  6986   0.809E-03    0.274E-02
RMM:   7    -0.115907507432E+04   -0.28638E-04   -0.20026E-05  6887   0.610E-03    0.237E-02
RMM:   8    -0.115907512150E+04   -0.47180E-04   -0.31798E-05  6928   0.726E-03
  11 F= -.11590751E+04 E0= -.11590751E+04  d E =-.150304E-02  mag=    12.0000
       N       E                     dE             d eps       ncg     rms          rms(c)
DAV:   1    -0.115906649832E+04    0.85760E-02   -0.37551E+00 12648   0.221E+00    0.387E-01
RMM:   2    -0.115907544547E+04   -0.89472E-02   -0.94009E-02 12298   0.382E-01    0.263E-01
RMM:   3    -0.115907553067E+04   -0.85197E-04   -0.44093E-03 12507   0.114E-01    0.184E-01
RMM:   4    -0.115907556581E+04   -0.35137E-04   -0.12919E-03 12635   0.390E-02    0.103E-01
RMM:   5    -0.115907573701E+04   -0.17120E-03   -0.33551E-04  9686   0.228E-02    0.767E-02
RMM:   6    -0.115907582418E+04   -0.87174E-04   -0.85002E-05  7404   0.125E-02    0.480E-02
RMM:   7    -0.115907592819E+04   -0.10401E-03   -0.58971E-05  7292   0.100E-02    0.411E-02
RMM:   8    -0.115907614764E+04   -0.21945E-03   -0.18168E-04  7997   0.156E-02    0.319E-02
RMM:   9    -0.115907624691E+04   -0.99272E-04   -0.11371E-04  7585   0.121E-02
  12 F= -.11590762E+04 E0= -.11590762E+04  d E =-.262846E-02  mag=    12.0000
       N       E                     dE             d eps       ncg     rms          rms(c)
DAV:   1    -0.115907682725E+04   -0.67961E-03   -0.27222E-01 12640   0.596E-01    0.112E-01
RMM:   2    -0.115907746387E+04   -0.63662E-03   -0.67997E-03 12204   0.102E-01    0.831E-02
RMM:   3    -0.115907746910E+04   -0.52277E-05   -0.29342E-04  8580   0.310E-02    0.567E-02
RMM:   4    -0.115907748329E+04   -0.14197E-04   -0.10087E-04  7264   0.125E-02    0.389E-02
RMM:   5    -0.115907750794E+04   -0.24646E-04   -0.39407E-05  7004   0.869E-03    0.327E-02
RMM:   6    -0.115907752408E+04   -0.16141E-04   -0.19518E-05  6838   0.584E-03    0.187E-02
RMM:   7    -0.115907753968E+04   -0.15597E-04   -0.12445E-05  6341   0.485E-03    0.172E-02
RMM:   8    -0.115907756548E+04   -0.25803E-04   -0.19809E-05  6707   0.541E-03
  13 F= -.11590776E+04 E0= -.11590776E+04  d E =-.131857E-02  mag=    12.0000
       N       E                     dE             d eps       ncg     rms          rms(c)
DAV:   1    -0.115907367013E+04    0.38695E-02   -0.24501E+00 12752   0.179E+00    0.333E-01
RMM:   2    -0.115907924802E+04   -0.55779E-02   -0.61092E-02 12296   0.306E-01    0.242E-01
RMM:   3    -0.115907924306E+04    0.49621E-05   -0.29156E-03 12339   0.935E-02    0.160E-01
RMM:   4    -0.115907918109E+04    0.61961E-04   -0.92441E-04 12318   0.322E-02    0.934E-02
RMM:   5    -0.115907924374E+04   -0.62646E-04   -0.22218E-04  8533   0.198E-02    0.681E-02
RMM:   6    -0.115907929261E+04   -0.48872E-04   -0.69973E-05  7307   0.117E-02    0.358E-02
RMM:   7    -0.115907933795E+04   -0.45340E-04   -0.39849E-05  7158   0.869E-03    0.311E-02
RMM:   8    -0.115907940696E+04   -0.69011E-04   -0.48384E-05  7150   0.900E-03
  14 F= -.11590794E+04 E0= -.11590794E+04  d E =-.316005E-02  mag=    12.0000
       N       E                     dE             d eps       ncg     rms          rms(c)
DAV:   1    -0.115908033910E+04   -0.10011E-02   -0.36888E-01 12864   0.699E-01    0.134E-01
RMM:   2    -0.115908115667E+04   -0.81757E-03   -0.92814E-03 12273   0.120E-01    0.100E-01
RMM:   3    -0.115908115086E+04    0.58059E-05   -0.43799E-04  9616   0.379E-02    0.675E-02
RMM:   4    -0.115908114969E+04    0.11735E-05   -0.14697E-04  7436   0.143E-02    0.437E-02
RMM:   5    -0.115908116775E+04   -0.18061E-04   -0.45940E-05  7056   0.929E-03    0.316E-02
RMM:   6    -0.115908117990E+04   -0.12149E-04   -0.20112E-05  6845   0.644E-03    0.182E-02
RMM:   7    -0.115908119191E+04   -0.12010E-04   -0.12780E-05  6617   0.484E-03    0.165E-02
RMM:   8    -0.115908120924E+04   -0.17333E-04   -0.13741E-05  6689   0.500E-03
  15 F= -.11590812E+04 E0= -.11590812E+04  d E =-.180228E-02  mag=    12.0000
       N       E                     dE             d eps       ncg     rms          rms(c)
DAV:   1    -0.115907895757E+04    0.22343E-02   -0.18989E+00 12800   0.159E+00    0.303E-01
RMM:   2    -0.115908302418E+04   -0.40666E-02   -0.47202E-02 12296   0.269E-01    0.223E-01
RMM:   3    -0.115908293765E+04    0.86533E-04   -0.22197E-03 12250   0.820E-02    0.146E-01
RMM:   4    -0.115908282322E+04    0.11442E-03   -0.77991E-04 11870   0.288E-02    0.821E-02
RMM:   5    -0.115908281998E+04    0.32424E-05   -0.15247E-04  8098   0.176E-02    0.478E-02
RMM:   6    -0.115908283923E+04   -0.19249E-04   -0.52093E-05  7198   0.105E-02    0.270E-02
RMM:   7    -0.115908285613E+04   -0.16898E-04   -0.29090E-05  7037   0.782E-03    0.215E-02
RMM:   8    -0.115908287729E+04   -0.21163E-04   -0.23731E-05  6912   0.673E-03
  16 F= -.11590829E+04 E0= -.11590829E+04  d E =-.347033E-02  mag=    12.0000
       N       E                     dE             d eps       ncg     rms          rms(c)
DAV:   1    -0.115908317995E+04   -0.32383E-03   -0.49828E-01 12736   0.823E-01    0.158E-01
RMM:   2    -0.115908428114E+04   -0.11012E-02   -0.12580E-02 12295   0.140E-01    0.113E-01
RMM:   3    -0.115908426778E+04    0.13364E-04   -0.58575E-04 10287   0.439E-02    0.752E-02
RMM:   4    -0.115908425036E+04    0.17416E-04   -0.16835E-04  7479   0.151E-02    0.433E-02
RMM:   5    -0.115908426143E+04   -0.11064E-04   -0.58419E-05  7114   0.105E-02    0.407E-02
RMM:   6    -0.115908426842E+04   -0.69892E-05   -0.23703E-05  6889   0.747E-03    0.187E-02
RMM:   7    -0.115908427637E+04   -0.79564E-05   -0.14541E-05  6770   0.535E-03    0.157E-02
RMM:   8    -0.115908428403E+04   -0.76572E-05   -0.10119E-05  6539   0.469E-03
  17 F= -.11590843E+04 E0= -.11590843E+04  d E =-.140674E-02  mag=    12.0000
       N       E                     dE             d eps       ncg     rms          rms(c)
DAV:   1    -0.115908296929E+04    0.13071E-02   -0.96857E-01 12704   0.115E+00    0.218E-01
RMM:   2    -0.115908508400E+04   -0.21147E-02   -0.24327E-02 12290   0.193E-01    0.155E-01
RMM:   3    -0.115908504699E+04    0.37009E-04   -0.11323E-03 11937   0.593E-02    0.102E-01
RMM:   4    -0.115908499785E+04    0.49139E-04   -0.36244E-04  9297   0.204E-02    0.620E-02
RMM:   5    -0.115908499499E+04    0.28652E-05   -0.80766E-05  7296   0.133E-02    0.541E-02
RMM:   6    -0.115908500442E+04   -0.94356E-05   -0.35024E-05  7042   0.890E-03    0.206E-02
RMM:   7    -0.115908501235E+04   -0.79292E-05   -0.18556E-05  6893   0.649E-03    0.169E-02
RMM:   8    -0.115908501907E+04   -0.67227E-05   -0.12963E-05  6726   0.527E-03
  18 F= -.11590850E+04 E0= -.11590850E+04  d E =-.214178E-02  mag=    12.0000
       N       E                     dE             d eps       ncg     rms          rms(c)
DAV:   1    -0.115908460669E+04    0.40566E-03   -0.71208E-01 12784   0.980E-01    0.185E-01
RMM:   2    -0.115908622096E+04   -0.16143E-02   -0.18201E-02 12292   0.168E-01    0.137E-01
RMM:   3    -0.115908619591E+04    0.25048E-04   -0.80210E-04 11276   0.480E-02    0.908E-02
RMM:   4    -0.115908615597E+04    0.39943E-04   -0.25168E-04  8150   0.172E-02    0.483E-02
RMM:   5    -0.115908616244E+04   -0.64757E-05   -0.70054E-05  7224   0.115E-02    0.194E-02
RMM:   6    -0.115908616916E+04   -0.67210E-05   -0.24010E-05  6952   0.716E-03    0.156E-02
RMM:   7    -0.115908617467E+04   -0.55101E-05   -0.13664E-05  6713   0.529E-03    0.120E-02
RMM:   8    -0.115908618209E+04   -0.74156E-05   -0.11243E-05  6707   0.471E-03
  19 F= -.11590862E+04 E0= -.11590862E+04  d E =-.116302E-02  mag=    12.0000
       N       E                     dE             d eps       ncg     rms          rms(c)
DAV:   1    -0.115908580431E+04    0.37037E-03   -0.27322E-01 12944   0.607E-01    0.115E-01
RMM:   2    -0.115908642691E+04   -0.62260E-03   -0.70006E-03 12244   0.104E-01    0.852E-02
RMM:   3    -0.115908641373E+04    0.13174E-04   -0.27501E-04  8319   0.299E-02    0.566E-02
RMM:   4    -0.115908640047E+04    0.13263E-04   -0.10153E-04  7199   0.123E-02    0.306E-02
RMM:   5    -0.115908640553E+04   -0.50558E-05   -0.35169E-05  6998   0.852E-03    0.258E-02
RMM:   6    -0.115908640887E+04   -0.33405E-05   -0.15031E-05  6760   0.545E-03    0.104E-02
RMM:   7    -0.115908641180E+04   -0.29290E-05   -0.84576E-06  6353   0.430E-03    0.947E-03
RMM:   8    -0.115908641522E+04   -0.34271E-05   -0.65145E-06  5994   0.346E-03
  20 F= -.11590864E+04 E0= -.11590864E+04  d E =-.139615E-02  mag=    12.0000
       N       E                     dE             d eps       ncg     rms          rms(c)
DAV:   1    -0.115908575361E+04    0.65819E-03   -0.73731E-01 12768   0.994E-01    0.186E-01
RMM:   2    -0.115908747416E+04   -0.17206E-02   -0.18670E-02 12286   0.170E-01    0.127E-01
RMM:   3    -0.115908746122E+04    0.12941E-04   -0.83885E-04 11335   0.500E-02    0.842E-02
RMM:   4    -0.115908742752E+04    0.33704E-04   -0.23649E-04  8101   0.174E-02    0.451E-02
RMM:   5    -0.115908744056E+04   -0.13048E-04   -0.65766E-05  7194   0.112E-02    0.204E-02
RMM:   6    -0.115908744801E+04   -0.74428E-05   -0.22575E-05  6901   0.695E-03    0.151E-02
RMM:   7    -0.115908745463E+04   -0.66271E-05   -0.13615E-05  6729   0.512E-03    0.120E-02
RMM:   8    -0.115908746268E+04   -0.80455E-05   -0.11063E-05  6678   0.478E-03
  21 F= -.11590875E+04 E0= -.11590875E+04  d E =-.104745E-02  mag=    12.0000
       N       E                     dE             d eps       ncg     rms          rms(c)
DAV:   1    -0.115908667219E+04    0.78244E-03   -0.48107E-01 12704   0.803E-01    0.150E-01
RMM:   2    -0.115908780088E+04   -0.11287E-02   -0.12211E-02 12279   0.137E-01    0.103E-01
RMM:   3    -0.115908779024E+04    0.10646E-04   -0.52468E-04  9911   0.399E-02    0.685E-02
RMM:   4    -0.115908777190E+04    0.18341E-04   -0.15903E-04  7535   0.146E-02    0.369E-02
RMM:   5    -0.115908778407E+04   -0.12169E-04   -0.48600E-05  7100   0.947E-03    0.225E-02
RMM:   6    -0.115908778964E+04   -0.55734E-05   -0.18395E-05  6837   0.625E-03    0.138E-02
RMM:   7    -0.115908779519E+04   -0.55484E-05   -0.11574E-05  6637   0.467E-03    0.115E-02
RMM:   8    -0.115908780172E+04   -0.65299E-05   -0.92679E-06  6519   0.433E-03
  22 F= -.11590878E+04 E0= -.11590878E+04  d E =-.138649E-02  mag=    12.0000
       N       E                     dE             d eps       ncg     rms          rms(c)
DAV:   1    -0.115908681595E+04    0.97923E-03   -0.87598E-01 12768   0.109E+00    0.204E-01
RMM:   2    -0.115908882595E+04   -0.20100E-02   -0.22220E-02 12285   0.186E-01    0.138E-01
RMM:   3    -0.115908881717E+04    0.87822E-05   -0.10442E-03 11805   0.564E-02    0.918E-02
RMM:   4    -0.115908878276E+04    0.34404E-04   -0.29096E-04  8574   0.192E-02    0.553E-02
RMM:   5    -0.115908879179E+04   -0.90265E-05   -0.78168E-05  7261   0.127E-02    0.557E-02
RMM:   6    -0.115908880277E+04   -0.10980E-04   -0.34314E-05  7016   0.879E-03    0.211E-02
RMM:   7    -0.115908881253E+04   -0.97605E-05   -0.18086E-05  6859   0.622E-03    0.180E-02
RMM:   8    -0.115908882136E+04   -0.88294E-05   -0.13305E-05  6731   0.527E-03
  23 F= -.11590888E+04 E0= -.11590888E+04  d E =-.101964E-02  mag=    12.0000
       N       E                     dE             d eps       ncg     rms          rms(c)
DAV:   1    -0.115908845816E+04    0.35436E-03   -0.23303E-01 12832   0.561E-01    0.105E-01
RMM:   2    -0.115908900457E+04   -0.54641E-03   -0.59822E-03 12275   0.967E-02    0.711E-02
RMM:   3    -0.115908900059E+04    0.39846E-05   -0.24686E-04  8128   0.289E-02    0.487E-02
RMM:   4    -0.115908899775E+04    0.28354E-05   -0.85600E-05  7182   0.117E-02    0.347E-02
RMM:   5    -0.115908900308E+04   -0.53263E-05   -0.30615E-05  6907   0.833E-03    0.358E-02
RMM:   6    -0.115908900940E+04   -0.63190E-05   -0.18737E-05  6793   0.558E-03    0.112E-02
RMM:   7    -0.115908901354E+04   -0.41458E-05   -0.82889E-06  6101   0.445E-03    0.119E-02
RMM:   8    -0.115908901884E+04   -0.52973E-05   -0.84908E-06  6079   0.374E-03
  24 F= -.11590890E+04 E0= -.11590890E+04  d E =-.121712E-02  mag=    12.0000
       N       E                     dE             d eps       ncg     rms          rms(c)
DAV:   1    -0.115908772063E+04    0.12929E-02   -0.10108E+00 12744   0.117E+00    0.221E-01
RMM:   2    -0.115909003689E+04   -0.23163E-02   -0.25554E-02 12286   0.199E-01    0.152E-01
RMM:   3    -0.115909002755E+04    0.93464E-05   -0.12126E-03 12000   0.612E-02    0.987E-02
RMM:   4    -0.115908998625E+04    0.41298E-04   -0.35394E-04  9191   0.204E-02    0.539E-02
RMM:   5    -0.115908999659E+04   -0.10343E-04   -0.84020E-05  7265   0.133E-02    0.243E-02
RMM:   6    -0.115909000708E+04   -0.10484E-04   -0.31228E-05  7008   0.821E-03    0.190E-02
RMM:   7    -0.115909001419E+04   -0.71122E-05   -0.17680E-05  6819   0.602E-03    0.140E-02
RMM:   8    -0.115909002391E+04   -0.97197E-05   -0.14494E-05  6799   0.539E-03
  25 F= -.11590900E+04 E0= -.11590900E+04  d E =-.100507E-02  mag=    12.0000
