       N       E                     dE             d eps       ncg     rms          rms(c)
DAV:   1    -0.116026770934E+04   -0.11603E+04   -0.16903E-05  7584   0.864E-03    0.125E-02
RMM:   2    -0.116026770984E+04   -0.49837E-06   -0.11555E-05  6388   0.557E-03    0.197E-02
RMM:   3    -0.116026771049E+04   -0.64335E-06   -0.62094E-06  5258   0.327E-03    0.418E-03
RMM:   4    -0.116026771090E+04   -0.40945E-06   -0.34486E-06  4401   0.331E-03    0.567E-03
RMM:   5    -0.116026771122E+04   -0.32694E-06   -0.22639E-06  3302   0.241E-03    0.317E-03
RMM:   6    -0.116026771149E+04   -0.26546E-06   -0.12709E-06  2782   0.242E-03    0.171E-03
RMM:   7    -0.116026771179E+04   -0.29658E-06   -0.91693E-07  2452   0.211E-03    0.218E-03
RMM:   8    -0.116026771211E+04   -0.32956E-06   -0.86287E-07  2467   0.221E-03
   1 F= -.11602677E+04 E0= -.11602677E+04  d E =-.116027E+04  mag=    10.0000
       N       E                     dE             d eps       ncg     rms          rms(c)
DAV:   1    -0.116026825845E+04   -0.54666E-03   -0.52161E-01 12864   0.841E-01    0.218E-01
RMM:   2    -0.116026941278E+04   -0.11543E-02   -0.15354E-02 12289   0.161E-01    0.199E-01
RMM:   3    -0.116026933688E+04    0.75899E-04   -0.72632E-04 11498   0.502E-02    0.131E-01
RMM:   4    -0.116026923030E+04    0.10658E-03   -0.33816E-04 10221   0.211E-02    0.788E-02
RMM:   5    -0.116026920642E+04    0.23876E-04   -0.70347E-05  7366   0.128E-02    0.225E-02
RMM:   6    -0.116026920892E+04   -0.24974E-05   -0.24630E-05  7044   0.711E-03    0.150E-02
RMM:   7    -0.116026920963E+04   -0.71236E-06   -0.94379E-06  6682   0.506E-03    0.125E-02
RMM:   8    -0.116026921016E+04   -0.52758E-06   -0.49996E-06  5868   0.339E-03
   2 F= -.11602692E+04 E0= -.11602692E+04  d E =-.149805E-02  mag=    10.0000
       N       E                     dE             d eps       ncg     rms          rms(c)
DAV:   1    -0.116026990534E+04   -0.69571E-03   -0.10585E-01 12528   0.381E-01    0.107E-01
RMM:   2    -0.116027007482E+04   -0.16947E-03   -0.33296E-03 12181   0.746E-02    0.103E-01
RMM:   3    -0.116027004149E+04    0.33331E-04   -0.13489E-04  7517   0.244E-02    0.702E-02
RMM:   4    -0.116027001047E+04    0.31011E-04   -0.10633E-04  7232   0.128E-02    0.478E-02
RMM:   5    -0.116027000416E+04    0.63122E-05   -0.30738E-05  6922   0.870E-03    0.267E-02
RMM:   6    -0.116027000438E+04   -0.21892E-06   -0.11995E-05  6293   0.483E-03    0.124E-02
RMM:   7    -0.116027000472E+04   -0.33485E-06   -0.50692E-06  5438   0.401E-03    0.101E-02
RMM:   8    -0.116027000497E+04   -0.25376E-06   -0.27601E-06  4319   0.252E-03
   3 F= -.11602700E+04 E0= -.11602700E+04  d E =-.794809E-03  mag=    10.0000
       N       E                     dE             d eps       ncg     rms          rms(c)
DAV:   1    -0.116027035912E+04   -0.35441E-03   -0.10627E-01 12504   0.383E-01    0.778E-02
RMM:   2    -0.116027058000E+04   -0.22087E-03   -0.28062E-03 12251   0.673E-02    0.594E-02
RMM:   3    -0.116027056898E+04    0.11014E-04   -0.11491E-04  7088   0.234E-02    0.382E-02
RMM:   4    -0.116027055957E+04    0.94097E-05   -0.52441E-05  6957   0.902E-03    0.230E-02
RMM:   5    -0.116027055802E+04    0.15475E-05   -0.14513E-05  6712   0.589E-03    0.187E-02
RMM:   6    -0.116027055861E+04   -0.58785E-06   -0.65945E-06  6033   0.371E-03    0.631E-03
RMM:   7    -0.116027055891E+04   -0.30246E-06   -0.29988E-06  4950   0.312E-03    0.573E-03
RMM:   8    -0.116027055909E+04   -0.17327E-06   -0.16279E-06  3459   0.232E-03
   4 F= -.11602706E+04 E0= -.11602706E+04  d E =-.554118E-03  mag=    10.0000
       N       E                     dE             d eps       ncg     rms          rms(c)
DAV:   1    -0.116027086240E+04   -0.30349E-03   -0.11843E-01 12544   0.403E-01    0.747E-02
RMM:   2    -0.116027111830E+04   -0.25589E-03   -0.29834E-03 12293   0.685E-02    0.499E-02
RMM:   3    -0.116027110943E+04    0.88644E-05   -0.12321E-04  7126   0.241E-02    0.319E-02
RMM:   4    -0.116027110292E+04    0.65157E-05   -0.51693E-05  6924   0.885E-03    0.163E-02
RMM:   5    -0.116027110318E+04   -0.26674E-06   -0.12427E-05  6632   0.527E-03    0.708E-03
RMM:   6    -0.116027110383E+04   -0.64842E-06   -0.56069E-06  5730   0.357E-03    0.467E-03
RMM:   7    -0.116027110416E+04   -0.32531E-06   -0.27722E-06  4336   0.293E-03    0.312E-03
RMM:   8    -0.116027110436E+04   -0.20598E-06   -0.14594E-06  3266   0.238E-03
   5 F= -.11602711E+04 E0= -.11602711E+04  d E =-.545274E-03  mag=    10.0000
       N       E                     dE             d eps       ncg     rms          rms(c)
DAV:   1    -0.116027134979E+04   -0.24563E-03   -0.17142E-01 12648   0.483E-01    0.853E-02
RMM:   2    -0.116027173190E+04   -0.38211E-03   -0.42239E-03 12393   0.809E-02    0.542E-02
RMM:   3    -0.116027172401E+04    0.78891E-05   -0.18210E-04  7550   0.286E-02    0.349E-02
RMM:   4    -0.116027171679E+04    0.72268E-05   -0.62056E-05  6999   0.101E-02    0.201E-02
RMM:   5    -0.116027171806E+04   -0.12725E-05   -0.15907E-05  6740   0.617E-03    0.136E-02
RMM:   6    -0.116027171900E+04   -0.94573E-06   -0.79972E-06  6252   0.421E-03    0.606E-03
RMM:   7    -0.116027171950E+04   -0.49481E-06   -0.41969E-06  4938   0.342E-03    0.503E-03
RMM:   8    -0.116027171978E+04   -0.28372E-06   -0.24351E-06  3941   0.268E-03
   6 F= -.11602717E+04 E0= -.11602717E+04  d E =-.615421E-03  mag=    10.0000
       N       E                     dE             d eps       ncg     rms          rms(c)
DAV:   1    -0.116027192937E+04   -0.20987E-03   -0.11432E-01 12400   0.392E-01    0.678E-02
RMM:   2    -0.116027218712E+04   -0.25775E-03   -0.28011E-03 12395   0.654E-02    0.423E-02
RMM:   3    -0.116027218115E+04    0.59720E-05   -0.11119E-04  7060   0.223E-02    0.271E-02
RMM:   4    -0.116027217700E+04    0.41495E-05   -0.41261E-05  6899   0.802E-03    0.128E-02
RMM:   5    -0.116027217809E+04   -0.10928E-05   -0.10318E-05  6404   0.467E-03    0.563E-03
RMM:   6    -0.116027217864E+04   -0.55094E-06   -0.45686E-06  5273   0.334E-03    0.319E-03
RMM:   7    -0.116027217895E+04   -0.31096E-06   -0.24482E-06  4165   0.270E-03    0.211E-03
RMM:   8    -0.116027217913E+04   -0.17359E-06   -0.11864E-06  3056   0.234E-03
   7 F= -.11602722E+04 E0= -.11602722E+04  d E =-.459343E-03  mag=    10.0000
