       N       E                     dE             d eps       ncg     rms          rms(c)
DAV:   1    -0.115724078273E+04   -0.11572E+04   -0.36974E-05  8008   0.229E-02    0.349E-02
RMM:   2    -0.115724082776E+04   -0.45029E-04   -0.74044E-05  6952   0.130E-02    0.590E-02
RMM:   3    -0.115724084130E+04   -0.13540E-04   -0.22985E-05  6382   0.552E-03    0.200E-02
RMM:   4    -0.115724085137E+04   -0.10068E-04   -0.10273E-05  5746   0.485E-03    0.229E-02
RMM:   5    -0.115724086334E+04   -0.11967E-04   -0.74451E-06  4713   0.314E-03    0.195E-02
RMM:   6    -0.115724080203E+04    0.61313E-04   -0.20542E-05  5234   0.630E-03    0.238E-02
RMM:   7    -0.115724087566E+04   -0.73633E-04   -0.24763E-05  5344   0.683E-03    0.196E-02
RMM:   8    -0.115724107340E+04   -0.19774E-03   -0.33863E-04  7283   0.202E-02    0.138E-02
RMM:   9    -0.115724120116E+04   -0.12776E-03   -0.30754E-04  6717   0.165E-02    0.175E-02
RMM:  10    -0.115724125214E+04   -0.50981E-04   -0.10745E-04  5511   0.835E-03
   1 F= -.11572413E+04 E0= -.11572413E+04  d E =-.115724E+04  mag=    14.0000
       N       E                     dE             d eps       ncg     rms          rms(c)
DAV:   1    -0.115724089690E+04    0.30426E-03   -0.18147E+00 12784   0.153E+00    0.551E-01
RMM:   2    -0.115724558792E+04   -0.46910E-02   -0.56983E-02 12326   0.315E-01    0.482E-01
RMM:   3    -0.115724555417E+04    0.33755E-04   -0.35061E-03 12744   0.104E-01    0.293E-01
RMM:   4    -0.115724513150E+04    0.42267E-03   -0.13615E-03 11565   0.418E-02    0.155E-01
RMM:   5    -0.115724505866E+04    0.72841E-04   -0.43667E-04 10394   0.277E-02    0.514E-02
RMM:   6    -0.115724506813E+04   -0.94686E-05   -0.51363E-05  7372   0.109E-02    0.364E-02
RMM:   7    -0.115724508077E+04   -0.12640E-04   -0.27969E-05  7164   0.697E-03    0.264E-02
RMM:   8    -0.115724510445E+04   -0.23685E-04   -0.24331E-05  7041   0.734E-03
   2 F= -.11572451E+04 E0= -.11572451E+04  d E =-.385231E-02  mag=    14.0000
       N       E                     dE             d eps       ncg     rms          rms(c)
DAV:   1    -0.115724761961E+04   -0.25388E-02   -0.42544E-01 12784   0.739E-01    0.271E-01
RMM:   2    -0.115724828275E+04   -0.66314E-03   -0.15051E-02 12254   0.158E-01    0.277E-01
RMM:   3    -0.115724815869E+04    0.12406E-03   -0.78805E-04 11453   0.494E-02    0.183E-01
RMM:   4    -0.115724800769E+04    0.15101E-03   -0.50215E-04 10511   0.246E-02    0.964E-02
RMM:   5    -0.115724798297E+04    0.24721E-04   -0.15941E-04  8285   0.183E-02    0.439E-02
RMM:   6    -0.115724799194E+04   -0.89754E-05   -0.34054E-05  7120   0.872E-03    0.274E-02
RMM:   7    -0.115724800204E+04   -0.10096E-04   -0.16112E-05  6591   0.586E-03    0.233E-02
RMM:   8    -0.115724801947E+04   -0.17438E-04   -0.15411E-05  6635   0.504E-03
   3 F= -.11572480E+04 E0= -.11572480E+04  d E =-.291502E-02  mag=    14.0000
       N       E                     dE             d eps       ncg     rms          rms(c)
DAV:   1    -0.115724880091E+04   -0.79887E-03   -0.40431E-01 12720   0.727E-01    0.227E-01
RMM:   2    -0.115725001897E+04   -0.12181E-02   -0.10187E-02 12819   0.129E-01    0.147E-01
RMM:   3    -0.115725006979E+04   -0.50823E-04   -0.50084E-04  9719   0.423E-02    0.837E-02
RMM:   4    -0.115725006111E+04    0.86824E-05   -0.14599E-04  7299   0.167E-02    0.412E-02
RMM:   5    -0.115725008483E+04   -0.23723E-04   -0.65885E-05  7066   0.109E-02    0.236E-02
RMM:   6    -0.115725009463E+04   -0.97965E-05   -0.21399E-05  6825   0.731E-03    0.173E-02
RMM:   7    -0.115725010476E+04   -0.10129E-04   -0.12628E-05  6450   0.497E-03    0.143E-02
RMM:   8    -0.115725012266E+04   -0.17905E-04   -0.13741E-05  6145   0.492E-03
   4 F= -.11572501E+04 E0= -.11572501E+04  d E =-.210319E-02  mag=    14.0000
       N       E                     dE             d eps       ncg     rms          rms(c)
DAV:   1    -0.115725076469E+04   -0.65993E-03   -0.27134E-01 12704   0.595E-01    0.169E-01
RMM:   2    -0.115725154423E+04   -0.77954E-03   -0.67304E-03 12628   0.104E-01    0.106E-01
RMM:   3    -0.115725157699E+04   -0.32766E-04   -0.33723E-04  8531   0.358E-02    0.627E-02
RMM:   4    -0.115725158190E+04   -0.49084E-05   -0.10595E-04  7182   0.137E-02    0.331E-02
RMM:   5    -0.115725160307E+04   -0.21163E-04   -0.45443E-05  7002   0.905E-03    0.202E-02
RMM:   6    -0.115725161349E+04   -0.10429E-04   -0.17730E-05  6760   0.631E-03    0.153E-02
RMM:   7    -0.115725162291E+04   -0.94156E-05   -0.10290E-05  6185   0.458E-03    0.130E-02
RMM:   8    -0.115725164340E+04   -0.20490E-04   -0.15442E-05  5952   0.494E-03
   5 F= -.11572516E+04 E0= -.11572516E+04  d E =-.152074E-02  mag=    14.0000
       N       E                     dE             d eps       ncg     rms          rms(c)
DAV:   1    -0.115724970272E+04    0.19202E-02   -0.16635E+00 12696   0.147E+00    0.415E-01
RMM:   2    -0.115725455097E+04   -0.48483E-02   -0.39871E-02 13016   0.252E-01    0.235E-01
RMM:   3    -0.115725476143E+04   -0.21046E-03   -0.20340E-03 12636   0.814E-02    0.129E-01
RMM:   4    -0.115725471456E+04    0.46874E-04   -0.47542E-04 10074   0.272E-02    0.607E-02
RMM:   5    -0.115725474681E+04   -0.32248E-04   -0.16370E-04  7379   0.177E-02    0.244E-02
RMM:   6    -0.115725476655E+04   -0.19739E-04   -0.49816E-05  7085   0.108E-02    0.180E-02
RMM:   7    -0.115725479354E+04   -0.26987E-04   -0.37854E-05  6917   0.875E-03    0.165E-02
RMM:   8    -0.115725482681E+04   -0.33274E-04   -0.34820E-05  6820   0.765E-03
   6 F= -.11572548E+04 E0= -.11572548E+04  d E =-.318341E-02  mag=    14.0000
       N       E                     dE             d eps       ncg     rms          rms(c)
DAV:   1    -0.115725164322E+04    0.31503E-02   -0.19007E+00 12704   0.157E+00    0.449E-01
RMM:   2    -0.115725729488E+04   -0.56517E-02   -0.45561E-02 13033   0.269E-01    0.254E-01
RMM:   3    -0.115725756942E+04   -0.27453E-03   -0.23498E-03 12825   0.869E-02    0.138E-01
RMM:   4    -0.115725752869E+04    0.40731E-04   -0.54766E-04 10603   0.288E-02    0.668E-02
RMM:   5    -0.115725757193E+04   -0.43247E-04   -0.19886E-04  7579   0.190E-02    0.270E-02
RMM:   6    -0.115725759689E+04   -0.24956E-04   -0.57309E-05  7116   0.117E-02    0.219E-02
RMM:   7    -0.115725761784E+04   -0.20956E-04   -0.36690E-05  6922   0.851E-03    0.191E-02
RMM:   8    -0.115725767132E+04   -0.53473E-04   -0.51197E-05  6937   0.960E-03
   7 F= -.11572577E+04 E0= -.11572577E+04  d E =-.284451E-02  mag=    14.0000
       N       E                     dE             d eps       ncg     rms          rms(c)
DAV:   1    -0.115725718162E+04    0.43623E-03   -0.58710E-01 12712   0.871E-01    0.250E-01
RMM:   2    -0.115725897402E+04   -0.17924E-02   -0.14247E-02 12993   0.150E-01    0.140E-01
RMM:   3    -0.115725906070E+04   -0.86682E-04   -0.69768E-04 10284   0.482E-02    0.762E-02
RMM:   4    -0.115725906489E+04   -0.41853E-05   -0.16030E-04  7383   0.174E-02    0.389E-02
RMM:   5    -0.115725910578E+04   -0.40894E-04   -0.88053E-05  7136   0.122E-02    0.201E-02
RMM:   6    -0.115725912435E+04   -0.18568E-04   -0.30788E-05  6923   0.824E-03    0.191E-02
RMM:   7    -0.115725913748E+04   -0.13136E-04   -0.18215E-05  6612   0.582E-03    0.162E-02
RMM:   8    -0.115725918072E+04   -0.43238E-04   -0.32632E-05  6559   0.735E-03
   8 F= -.11572592E+04 E0= -.11572592E+04  d E =-.150940E-02  mag=    14.0000
       N       E                     dE             d eps       ncg     rms          rms(c)
DAV:   1    -0.115725882454E+04    0.31294E-03   -0.47381E-01 12720   0.781E-01    0.220E-01
RMM:   2    -0.115726024842E+04   -0.14239E-02   -0.11376E-02 12903   0.133E-01    0.123E-01
RMM:   3    -0.115726031739E+04   -0.68968E-04   -0.54357E-04  9511   0.432E-02    0.669E-02
RMM:   4    -0.115726032441E+04   -0.70212E-05   -0.13059E-04  7255   0.157E-02    0.344E-02
RMM:   5    -0.115726035891E+04   -0.34503E-04   -0.69879E-05  7091   0.110E-02    0.188E-02
RMM:   6    -0.115726037463E+04   -0.15721E-04   -0.25474E-05  6836   0.736E-03    0.170E-02
RMM:   7    -0.115726038724E+04   -0.12610E-04   -0.15153E-05  6374   0.541E-03    0.146E-02
RMM:   8    -0.115726042813E+04   -0.40885E-04   -0.32817E-05  6502   0.707E-03
   9 F= -.11572604E+04 E0= -.11572604E+04  d E =-.124741E-02  mag=    14.0000
       N       E                     dE             d eps       ncg     rms          rms(c)
DAV:   1    -0.115726005831E+04    0.32894E-03   -0.45808E-01 12648   0.769E-01    0.208E-01
RMM:   2    -0.115726139747E+04   -0.13392E-02   -0.11020E-02 12901   0.131E-01    0.117E-01
RMM:   3    -0.115726145528E+04   -0.57803E-04   -0.52241E-04  9419   0.426E-02    0.645E-02
RMM:   4    -0.115726145881E+04   -0.35330E-05   -0.12246E-04  7224   0.154E-02    0.336E-02
RMM:   5    -0.115726148767E+04   -0.28860E-04   -0.64069E-05  7049   0.107E-02    0.186E-02
RMM:   6    -0.115726150105E+04   -0.13382E-04   -0.23598E-05  6817   0.716E-03    0.158E-02
RMM:   7    -0.115726151225E+04   -0.11197E-04   -0.14148E-05  6288   0.527E-03    0.135E-02
RMM:   8    -0.115726154417E+04   -0.31921E-04   -0.25503E-05  6370   0.633E-03
  10 F= -.11572615E+04 E0= -.11572615E+04  d E =-.111604E-02  mag=    14.0000
       N       E                     dE             d eps       ncg     rms          rms(c)
DAV:   1    -0.115726128896E+04    0.22329E-03   -0.38752E-01 12608   0.707E-01    0.187E-01
RMM:   2    -0.115726240410E+04   -0.11151E-02   -0.93029E-03 12838   0.120E-01    0.105E-01
RMM:   3    -0.115726245093E+04   -0.46833E-04   -0.43921E-04  8898   0.394E-02    0.585E-02
RMM:   4    -0.115726245518E+04   -0.42475E-05   -0.10652E-04  7181   0.142E-02    0.310E-02
RMM:   5    -0.115726247874E+04   -0.23565E-04   -0.54497E-05  6983   0.990E-03    0.177E-02
RMM:   6    -0.115726249052E+04   -0.11773E-04   -0.21133E-05  6727   0.671E-03    0.139E-02
RMM:   7    -0.115726250080E+04   -0.10287E-04   -0.12558E-05  6113   0.508E-03    0.123E-02
RMM:   8    -0.115726252789E+04   -0.27086E-04   -0.22615E-05  6150   0.594E-03
  11 F= -.11572625E+04 E0= -.11572625E+04  d E =-.983722E-03  mag=    14.0000
       N       E                     dE             d eps       ncg     rms          rms(c)
DAV:   1    -0.115726242271E+04    0.78092E-04   -0.27857E-01 12688   0.598E-01    0.157E-01
RMM:   2    -0.115726322147E+04   -0.79876E-03   -0.66677E-03 12813   0.102E-01    0.889E-02
RMM:   3    -0.115726325308E+04   -0.31612E-04   -0.30473E-04  8258   0.332E-02    0.498E-02
RMM:   4    -0.115726325800E+04   -0.49236E-05   -0.80387E-05  7094   0.123E-02    0.266E-02
RMM:   5    -0.115726327641E+04   -0.18404E-04   -0.40573E-05  6943   0.860E-03    0.165E-02
RMM:   6    -0.115726328560E+04   -0.91903E-05   -0.16370E-05  6538   0.589E-03    0.125E-02
RMM:   7    -0.115726329378E+04   -0.81856E-05   -0.93153E-06  5677   0.452E-03    0.108E-02
RMM:   8    -0.115726331519E+04   -0.21404E-04   -0.18319E-05  5824   0.529E-03
  12 F= -.11572633E+04 E0= -.11572633E+04  d E =-.787299E-03  mag=    14.0000
