       N       E                     dE             d eps       ncg     rms          rms(c)
DAV:   1    -0.115721552072E+04   -0.11572E+04   -0.28594E-06  7104   0.270E-03    0.204E-03
RMM:   2    -0.115721552108E+04   -0.36707E-06   -0.83445E-07  3069   0.221E-03    0.204E-03
RMM:   3    -0.115721552119E+04   -0.10943E-06   -0.14730E-07  1383   0.163E-03    0.158E-03
RMM:   4    -0.115721552117E+04    0.24098E-07   -0.63099E-08  1068   0.161E-03    0.149E-03
RMM:   5    -0.115721552110E+04    0.71101E-07   -0.20181E-08   957   0.158E-03    0.186E-03
RMM:   6    -0.115721552087E+04    0.22494E-06   -0.42557E-08   998   0.161E-03    0.216E-03
RMM:   7    -0.115721552000E+04    0.87067E-06   -0.54903E-07  2032   0.197E-03    0.344E-03
RMM:   8    -0.115721552054E+04   -0.54200E-06   -0.11900E-07  1161   0.164E-03
   1 F= -.11572155E+04 E0= -.11572155E+04  d E =-.115722E+04  mag=    14.0000
       N       E                     dE             d eps       ncg     rms          rms(c)
DAV:   1    -0.115721575833E+04   -0.23833E-03   -0.39677E-01 12768   0.731E-01    0.247E-01
RMM:   2    -0.115721655156E+04   -0.79323E-03   -0.11868E-02 12311   0.143E-01    0.204E-01
RMM:   3    -0.115721650586E+04    0.45707E-04   -0.60723E-04 11223   0.463E-02    0.127E-01
RMM:   4    -0.115721638339E+04    0.12246E-03   -0.35964E-04 10417   0.213E-02    0.702E-02
RMM:   5    -0.115721636134E+04    0.22051E-04   -0.68692E-05  7378   0.130E-02    0.268E-02
RMM:   6    -0.115721636300E+04   -0.16581E-05   -0.21292E-05  7014   0.638E-03    0.160E-02
RMM:   7    -0.115721636382E+04   -0.81939E-06   -0.92653E-06  6411   0.487E-03    0.122E-02
RMM:   8    -0.115721636454E+04   -0.71673E-06   -0.54196E-06  5979   0.330E-03
   2 F= -.11572164E+04 E0= -.11572164E+04  d E =-.843992E-03  mag=    14.0000
       N       E                     dE             d eps       ncg     rms          rms(c)
DAV:   1    -0.115721715098E+04   -0.78716E-03   -0.90483E-02 12344   0.348E-01    0.105E-01
RMM:   2    -0.115721721626E+04   -0.65278E-04   -0.30621E-03 12166   0.719E-02    0.106E-01
RMM:   3    -0.115721717784E+04    0.38424E-04   -0.12017E-04  7459   0.219E-02    0.707E-02
RMM:   4    -0.115721713418E+04    0.43656E-04   -0.99971E-05  7201   0.118E-02    0.364E-02
RMM:   5    -0.115721712406E+04    0.10120E-04   -0.35800E-05  6948   0.834E-03    0.359E-02
RMM:   6    -0.115721712489E+04   -0.82557E-06   -0.12694E-05  5997   0.519E-03    0.133E-02
RMM:   7    -0.115721712522E+04   -0.33158E-06   -0.51231E-06  4956   0.344E-03    0.107E-02
RMM:   8    -0.115721712559E+04   -0.37231E-06   -0.30818E-06  4802   0.284E-03
   3 F= -.11572171E+04 E0= -.11572171E+04  d E =-.761054E-03  mag=    14.0000
       N       E                     dE             d eps       ncg     rms          rms(c)
DAV:   1    -0.115721736045E+04   -0.23523E-03   -0.61145E-02 12224   0.289E-01    0.641E-02
RMM:   2    -0.115721748870E+04   -0.12826E-03   -0.16026E-03 12253   0.520E-02    0.486E-02
RMM:   3    -0.115721748312E+04    0.55788E-05   -0.68357E-05  6849   0.178E-02    0.306E-02
RMM:   4    -0.115721747704E+04    0.60793E-05   -0.32298E-05  6745   0.731E-03    0.164E-02
RMM:   5    -0.115721747664E+04    0.39971E-06   -0.83476E-06  5979   0.454E-03    0.666E-03
RMM:   6    -0.115721747706E+04   -0.42023E-06   -0.36355E-06  4745   0.281E-03    0.411E-03
RMM:   7    -0.115721747725E+04   -0.18693E-06   -0.14865E-06  3380   0.262E-03    0.238E-03
RMM:   8    -0.115721747739E+04   -0.13776E-06   -0.69413E-07  2362   0.204E-03
   4 F= -.11572175E+04 E0= -.11572175E+04  d E =-.351800E-03  mag=    14.0000
       N       E                     dE             d eps       ncg     rms          rms(c)
DAV:   1    -0.115721766237E+04   -0.18512E-03   -0.43001E-02 12224   0.241E-01    0.515E-02
RMM:   2    -0.115721775572E+04   -0.93344E-04   -0.10843E-03 12027   0.421E-02    0.348E-02
RMM:   3    -0.115721775342E+04    0.23005E-05   -0.49303E-05  6731   0.154E-02    0.223E-02
RMM:   4    -0.115721775096E+04    0.24532E-05   -0.21005E-05  6561   0.582E-03    0.133E-02
RMM:   5    -0.115721775085E+04    0.11068E-06   -0.54856E-06  5460   0.382E-03    0.863E-03
RMM:   6    -0.115721775112E+04   -0.27205E-06   -0.25961E-06  3661   0.260E-03    0.383E-03
RMM:   7    -0.115721775126E+04   -0.13782E-06   -0.10920E-06  2794   0.241E-03    0.189E-03
RMM:   8    -0.115721775135E+04   -0.84110E-07   -0.51802E-07  2052   0.207E-03
   5 F= -.11572178E+04 E0= -.11572178E+04  d E =-.273957E-03  mag=    14.0000
