       N       E                     dE             d eps       ncg     rms          rms(c)
DAV:   1     0.121024618846E+05    0.12102E+05   -0.42642E+05 12352   0.132E+03
DAV:   2     0.714220692265E+03   -0.11388E+05   -0.10171E+05 12320   0.380E+02
DAV:   3    -0.134716373645E+04   -0.20614E+04   -0.19840E+04 13192   0.168E+02
DAV:   4    -0.148977722511E+04   -0.14261E+03   -0.14014E+03 16248   0.469E+01
DAV:   5    -0.149928146623E+04   -0.95042E+01   -0.94536E+01 22232   0.112E+01    0.182E+02
RMM:   6    -0.116056668587E+04    0.33871E+03   -0.16451E+03 12574   0.363E+01    0.133E+02
RMM:   7    -0.114292270080E+04    0.17644E+02   -0.65087E+01 12779   0.128E+01    0.784E+01
RMM:   8    -0.114612362299E+04   -0.32009E+01   -0.27334E+01 14150   0.604E+00    0.422E+01
RMM:   9    -0.115049530858E+04   -0.43717E+01   -0.76103E+00 13713   0.320E+00    0.200E+01
RMM:  10    -0.115162553878E+04   -0.11302E+01   -0.46776E+00 13626   0.238E+00    0.125E+01
RMM:  11    -0.115261545244E+04   -0.98991E+00   -0.17178E+00 14253   0.141E+00    0.819E+00
RMM:  12    -0.115350447938E+04   -0.88903E+00   -0.65606E-01 14206   0.766E-01    0.447E+00
RMM:  13    -0.115443907961E+04   -0.93460E+00   -0.88498E-01 13099   0.895E-01    0.223E+00
RMM:  14    -0.115461344408E+04   -0.17436E+00   -0.23102E-01 14110   0.525E-01    0.122E+00
RMM:  15    -0.115466829331E+04   -0.54849E-01   -0.10431E-01 14794   0.316E-01    0.657E-01
RMM:  16    -0.115468482196E+04   -0.16529E-01   -0.36789E-02 15593   0.175E-01    0.510E-01
RMM:  17    -0.115469222407E+04   -0.74021E-02   -0.11769E-02 15649   0.104E-01    0.346E-01
RMM:  18    -0.115469615241E+04   -0.39283E-02   -0.42475E-03 13766   0.580E-02    0.271E-01
RMM:  19    -0.115470094014E+04   -0.47877E-02   -0.35935E-03 12021   0.597E-02    0.220E-01
RMM:  20    -0.115470738864E+04   -0.64485E-02   -0.61517E-03 11441   0.789E-02    0.201E-01
RMM:  21    -0.115471204280E+04   -0.46542E-02   -0.50063E-03 11418   0.671E-02    0.183E-01
RMM:  22    -0.115472372079E+04   -0.11678E-01   -0.35473E-02 11667   0.210E-01    0.160E-01
RMM:  23    -0.115472501787E+04   -0.12971E-02   -0.37367E-03 11590   0.512E-02    0.138E-01
RMM:  24    -0.115472906300E+04   -0.40451E-02   -0.64174E-03 10827   0.821E-02    0.114E-01
RMM:  25    -0.115473335804E+04   -0.42950E-02   -0.16094E-02 11085   0.136E-01    0.967E-02
RMM:  26    -0.115473546924E+04   -0.21112E-02   -0.10732E-02 11059   0.103E-01    0.893E-02
RMM:  27    -0.115473659383E+04   -0.11246E-02   -0.24579E-03 10847   0.456E-02    0.476E-02
RMM:  28    -0.115473717139E+04   -0.57755E-03   -0.63381E-03 10687   0.845E-02    0.671E-02
RMM:  29    -0.115473779978E+04   -0.62840E-03   -0.12901E-03  9920   0.328E-02    0.239E-02
RMM:  30    -0.115473792640E+04   -0.12662E-03   -0.64952E-04  8990   0.245E-02    0.185E-02
RMM:  31    -0.115473797533E+04   -0.48937E-04   -0.42033E-04  8394   0.192E-02
   1 F= -.11547380E+04 E0= -.11547380E+04  d E =-.115474E+04  mag=    14.0009
       N       E                     dE             d eps       ncg     rms          rms(c)
DAV:   1    -0.111170861498E+04    0.43029E+02   -0.18157E+03 13152   0.388E+01    0.323E+01
RMM:   2    -0.115511738200E+04   -0.43409E+02   -0.20224E+02 13371   0.133E+01    0.335E+01
RMM:   3    -0.115499113148E+04    0.12625E+00   -0.97388E+00 12540   0.436E+00    0.212E+01
RMM:   4    -0.115448881513E+04    0.50232E+00   -0.18483E+00 15164   0.129E+00    0.186E+01
RMM:   5    -0.115434675203E+04    0.14206E+00   -0.22983E-01 17711   0.362E-01    0.155E+01
RMM:   6    -0.115415185103E+04    0.19490E+00   -0.81061E-01 12972   0.739E-01    0.798E+00
RMM:   7    -0.115412427950E+04    0.27572E-01   -0.33454E-01 13667   0.480E-01    0.156E+00
RMM:   8    -0.115412606910E+04   -0.17896E-02   -0.35635E-02 17494   0.135E-01    0.790E-01
RMM:   9    -0.115412656376E+04   -0.49465E-03   -0.80632E-03 15697   0.719E-02    0.394E-01
RMM:  10    -0.115412689958E+04   -0.33583E-03   -0.40526E-03 14630   0.474E-02    0.204E-01
RMM:  11    -0.115412700390E+04   -0.10432E-03   -0.10332E-03 11776   0.245E-02    0.938E-02
RMM:  12    -0.115412713015E+04   -0.12625E-03   -0.47543E-04  8892   0.162E-02    0.604E-02
RMM:  13    -0.115412730216E+04   -0.17201E-03   -0.26978E-04  8387   0.169E-02    0.450E-02
RMM:  14    -0.115412744004E+04   -0.13788E-03   -0.19052E-04  8176   0.137E-02    0.356E-02
RMM:  15    -0.115412749389E+04   -0.53854E-04   -0.92594E-05  7837   0.105E-02
   2 F= -.11541275E+04 E0= -.11541275E+04  d E =0.610481E+00  mag=    13.9998
       N       E                     dE             d eps       ncg     rms          rms(c)
DAV:   1    -0.114872384315E+04    0.54036E+01   -0.29773E+02 13296   0.160E+01    0.139E+01
RMM:   2    -0.115596564375E+04   -0.72418E+01   -0.18719E+01 12859   0.454E+00    0.200E+01
RMM:   3    -0.115598378795E+04   -0.18144E-01   -0.11980E+00 12605   0.171E+00    0.611E+00
RMM:   4    -0.115589931647E+04    0.84471E-01   -0.51870E-01 13906   0.694E-01    0.415E+00
RMM:   5    -0.115584319270E+04    0.56124E-01   -0.12151E-01 13519   0.330E-01    0.193E+00
RMM:   6    -0.115583453247E+04    0.86602E-02   -0.48748E-02 13372   0.210E-01    0.800E-01
RMM:   7    -0.115583460331E+04   -0.70841E-04   -0.84343E-03 16035   0.810E-02    0.459E-01
RMM:   8    -0.115583454338E+04    0.59935E-04   -0.14773E-03 14476   0.354E-02    0.244E-01
RMM:   9    -0.115583462086E+04   -0.77489E-04   -0.68756E-04 12868   0.246E-02
   3 F= -.11558346E+04 E0= -.11558346E+04  d E =-.170713E+01  mag=    14.0000
       N       E                     dE             d eps       ncg     rms          rms(c)
DAV:   1    -0.115589740763E+04   -0.62864E-01   -0.49135E+01 13560   0.642E+00    0.460E+00
RMM:   2    -0.115616555646E+04   -0.26815E+00   -0.13367E+00 12344   0.131E+00    0.327E+00
RMM:   3    -0.115619476963E+04   -0.29213E-01   -0.73891E-02 12726   0.441E-01    0.158E+00
RMM:   4    -0.115618720606E+04    0.75636E-02   -0.22306E-02 13330   0.148E-01    0.936E-01
RMM:   5    -0.115618505218E+04    0.21539E-02   -0.83705E-03 12561   0.912E-02    0.230E-01
RMM:   6    -0.115618506820E+04   -0.16017E-04   -0.12205E-03 12497   0.353E-02    0.162E-01
RMM:   7    -0.115618507267E+04   -0.44746E-05   -0.28879E-04  9099   0.158E-02    0.884E-02
RMM:   8    -0.115618509246E+04   -0.19782E-04   -0.14793E-04  8336   0.135E-02
   4 F= -.11561851E+04 E0= -.11561851E+04  d E =-.350472E+00  mag=    14.0000
       N       E                     dE             d eps       ncg     rms          rms(c)
DAV:   1    -0.115609431473E+04    0.90758E-01   -0.39112E+01 12960   0.563E+00    0.439E+00
RMM:   2    -0.115632898283E+04   -0.23467E+00   -0.99687E-01 12541   0.111E+00    0.289E+00
RMM:   3    -0.115635816824E+04   -0.29185E-01   -0.58163E-02 13060   0.354E-01    0.145E+00
RMM:   4    -0.115635356127E+04    0.46070E-02   -0.22324E-02 13252   0.144E-01    0.646E-01
RMM:   5    -0.115635324557E+04    0.31570E-03   -0.43748E-03 13169   0.662E-02    0.253E-01
RMM:   6    -0.115635328638E+04   -0.40808E-04   -0.72551E-04 11220   0.238E-02    0.135E-01
RMM:   7    -0.115635328793E+04   -0.15455E-05   -0.25296E-04  8667   0.162E-02    0.948E-02
RMM:   8    -0.115635330501E+04   -0.17087E-04   -0.14009E-04  7944   0.157E-02
   5 F= -.11563533E+04 E0= -.11563533E+04  d E =-.168213E+00  mag=    14.0000
       N       E                     dE             d eps       ncg     rms          rms(c)
DAV:   1    -0.115632783643E+04    0.25451E-01   -0.19165E+01 12776   0.467E+00    0.216E+00
RMM:   2    -0.115639676592E+04   -0.68929E-01   -0.48640E-01 12404   0.894E-01    0.151E+00
RMM:   3    -0.115640283946E+04   -0.60735E-02   -0.30008E-02 13278   0.278E-01    0.895E-01
RMM:   4    -0.115640070842E+04    0.21310E-02   -0.73859E-03 14633   0.922E-02    0.448E-01
RMM:   5    -0.115640037084E+04    0.33758E-03   -0.33893E-03 13376   0.550E-02    0.136E-01
RMM:   6    -0.115640035829E+04    0.12545E-04   -0.35902E-04  9686   0.239E-02    0.112E-01
RMM:   7    -0.115640037044E+04   -0.12149E-04   -0.12414E-04  8113   0.122E-02    0.536E-02
RMM:   8    -0.115640039605E+04   -0.25611E-04   -0.11099E-04  7853   0.128E-02
   6 F= -.11564004E+04 E0= -.11564004E+04  d E =-.470910E-01  mag=    14.0000
       N       E                     dE             d eps       ncg     rms          rms(c)
DAV:   1    -0.115640938265E+04   -0.90122E-02   -0.10248E+01 12880   0.356E+00    0.963E-01
RMM:   2    -0.115643482752E+04   -0.25445E-01   -0.25382E-01 12531   0.649E-01    0.721E-01
RMM:   3    -0.115643567720E+04   -0.84968E-03   -0.15415E-02 13434   0.201E-01    0.460E-01
RMM:   4    -0.115643484152E+04    0.83569E-03   -0.31744E-03 14990   0.618E-02    0.260E-01
RMM:   5    -0.115643466243E+04    0.17909E-03   -0.13828E-03 12519   0.351E-02    0.684E-02
RMM:   6    -0.115643467779E+04   -0.15367E-04   -0.17806E-04  8432   0.175E-02    0.599E-02
RMM:   7    -0.115643468886E+04   -0.11070E-04   -0.75160E-05  7460   0.103E-02    0.329E-02
RMM:   8    -0.115643470053E+04   -0.11669E-04   -0.58302E-05  7303   0.103E-02
   7 F= -.11564347E+04 E0= -.11564347E+04  d E =-.343045E-01  mag=    14.0000
       N       E                     dE             d eps       ncg     rms          rms(c)
DAV:   1    -0.115642497413E+04    0.97147E-02   -0.17206E+01 12672   0.464E+00    0.106E+00
RMM:   2    -0.115646656792E+04   -0.41594E-01   -0.40764E-01 12695   0.803E-01    0.706E-01
RMM:   3    -0.115646759260E+04   -0.10247E-02   -0.21271E-02 13187   0.258E-01    0.429E-01
RMM:   4    -0.115646661222E+04    0.98038E-03   -0.51946E-03 15977   0.785E-02    0.235E-01
RMM:   5    -0.115646645614E+04    0.15608E-03   -0.20582E-03 14202   0.409E-02    0.732E-02
RMM:   6    -0.115646646773E+04   -0.11594E-04   -0.28101E-04  9646   0.200E-02    0.519E-02
RMM:   7    -0.115646648367E+04   -0.15942E-04   -0.13174E-04  7922   0.118E-02    0.301E-02
RMM:   8    -0.115646650558E+04   -0.21910E-04   -0.10630E-04  7563   0.115E-02
   8 F= -.11564665E+04 E0= -.11564665E+04  d E =-.318051E-01  mag=    14.0000
       N       E                     dE             d eps       ncg     rms          rms(c)
DAV:   1    -0.115646627281E+04    0.21087E-03   -0.91913E+00 12688   0.344E+00    0.623E-01
RMM:   2    -0.115648634175E+04   -0.20069E-01   -0.22040E-01 12744   0.585E-01    0.434E-01
RMM:   3    -0.115648616991E+04    0.17184E-03   -0.10913E-02 13073   0.191E-01    0.286E-01
RMM:   4    -0.115648572176E+04    0.44815E-03   -0.30532E-03 15407   0.595E-02    0.170E-01
RMM:   5    -0.115648565516E+04    0.66599E-04   -0.89702E-04 12855   0.279E-02    0.417E-02
RMM:   6    -0.115648566906E+04   -0.13899E-04   -0.12342E-04  7906   0.146E-02    0.293E-02
RMM:   7    -0.115648568326E+04   -0.14200E-04   -0.87669E-05  7566   0.108E-02    0.200E-02
RMM:   8    -0.115648569844E+04   -0.15180E-04   -0.68629E-05  7325   0.977E-03
   9 F= -.11564857E+04 E0= -.11564857E+04  d E =-.191929E-01  mag=    14.0000
       N       E                     dE             d eps       ncg     rms          rms(c)
DAV:   1    -0.115647755934E+04    0.81239E-02   -0.12506E+01 12672   0.402E+00    0.711E-01
RMM:   2    -0.115650494681E+04   -0.27387E-01   -0.29693E-01 12789   0.675E-01    0.465E-01
RMM:   3    -0.115650463033E+04    0.31647E-03   -0.14226E-02 13154   0.218E-01    0.307E-01
RMM:   4    -0.115650405720E+04    0.57314E-03   -0.39446E-03 15697   0.679E-02    0.164E-01
RMM:   5    -0.115650404217E+04    0.15022E-04   -0.10011E-03 13512   0.290E-02    0.376E-02
RMM:   6    -0.115650405713E+04   -0.14960E-04   -0.15063E-04  8483   0.154E-02    0.255E-02
RMM:   7    -0.115650407467E+04   -0.17541E-04   -0.11068E-04  7863   0.118E-02    0.163E-02
RMM:   8    -0.115650408663E+04   -0.11951E-04   -0.73516E-05  7517   0.976E-03
  10 F= -.11565041E+04 E0= -.11565041E+04  d E =-.183882E-01  mag=    14.0000
       N       E                     dE             d eps       ncg     rms          rms(c)
DAV:   1    -0.115649913348E+04    0.49412E-02   -0.82058E+00 12776   0.326E+00    0.566E-01
RMM:   2    -0.115651704434E+04   -0.17911E-01   -0.19414E-01 12745   0.547E-01    0.362E-01
RMM:   3    -0.115651683701E+04    0.20734E-03   -0.94893E-03 13065   0.180E-01    0.238E-01
RMM:   4    -0.115651646377E+04    0.37323E-03   -0.28001E-03 15037   0.569E-02    0.108E-01
RMM:   5    -0.115651647441E+04   -0.10638E-04   -0.56845E-04 11647   0.238E-02    0.297E-02
RMM:   6    -0.115651648451E+04   -0.10101E-04   -0.91406E-05  7786   0.135E-02    0.196E-02
RMM:   7    -0.115651649886E+04   -0.14348E-04   -0.10434E-04  7575   0.114E-02    0.131E-02
RMM:   8    -0.115651650878E+04   -0.99254E-05   -0.63293E-05  7171   0.900E-03
  11 F= -.11565165E+04 E0= -.11565165E+04  d E =-.124222E-01  mag=    14.0000
       N       E                     dE             d eps       ncg     rms          rms(c)
DAV:   1    -0.115651265149E+04    0.38474E-02   -0.61200E+00 12808   0.283E+00    0.497E-01
RMM:   2    -0.115652612772E+04   -0.13476E-01   -0.14517E-01 12736   0.475E-01    0.310E-01
RMM:   3    -0.115652600244E+04    0.12529E-03   -0.71417E-03 13034   0.155E-01    0.202E-01
RMM:   4    -0.115652572120E+04    0.28123E-03   -0.19800E-03 14652   0.484E-02    0.995E-02
RMM:   5    -0.115652572805E+04   -0.68474E-05   -0.44485E-04 10709   0.218E-02    0.294E-02
RMM:   6    -0.115652573728E+04   -0.92313E-05   -0.76032E-05  7432   0.132E-02    0.192E-02
RMM:   7    -0.115652574682E+04   -0.95327E-05   -0.80119E-05  7324   0.103E-02    0.132E-02
RMM:   8    -0.115652575474E+04   -0.79269E-05   -0.51634E-05  6998   0.863E-03
  12 F= -.11565258E+04 E0= -.11565258E+04  d E =-.924596E-02  mag=    14.0000
       N       E                     dE             d eps       ncg     rms          rms(c)
DAV:   1    -0.115652416708E+04    0.15797E-02   -0.36462E+00 12880   0.219E+00    0.398E-01
RMM:   2    -0.115653230240E+04   -0.81353E-02   -0.87350E-02 12703   0.370E-01    0.243E-01
RMM:   3    -0.115653224467E+04    0.57730E-04   -0.43604E-03 12961   0.122E-01    0.159E-01
RMM:   4    -0.115653206907E+04    0.17560E-03   -0.11201E-03 13690   0.375E-02    0.818E-02
RMM:   5    -0.115653206969E+04   -0.61639E-06   -0.27899E-04  9018   0.192E-02    0.234E-02
RMM:   6    -0.115653207736E+04   -0.76764E-05   -0.62985E-05  7253   0.122E-02    0.174E-02
RMM:   7    -0.115653208293E+04   -0.55649E-05   -0.49014E-05  7070   0.903E-03    0.132E-02
RMM:   8    -0.115653208792E+04   -0.49893E-05   -0.33189E-05  6830   0.774E-03
  13 F= -.11565321E+04 E0= -.11565321E+04  d E =-.633318E-02  mag=    14.0000
       N       E                     dE             d eps       ncg     rms          rms(c)
DAV:   1    -0.115653023968E+04    0.18432E-02   -0.29840E+00 12832   0.199E+00    0.375E-01
RMM:   2    -0.115653707649E+04   -0.68368E-02   -0.71505E-02 12716   0.335E-01    0.228E-01
RMM:   3    -0.115653707117E+04    0.53167E-05   -0.35018E-03 12828   0.109E-01    0.144E-01
RMM:   4    -0.115653693102E+04    0.14016E-03   -0.88137E-04 12986   0.335E-02    0.728E-02
RMM:   5    -0.115653692984E+04    0.11719E-05   -0.23677E-04  8337   0.183E-02    0.255E-02
RMM:   6    -0.115653693548E+04   -0.56391E-05   -0.52396E-05  7192   0.116E-02    0.138E-02
RMM:   7    -0.115653694040E+04   -0.49179E-05   -0.40481E-05  6943   0.828E-03    0.944E-03
RMM:   8    -0.115653694392E+04   -0.35147E-05   -0.26120E-05  6756   0.736E-03
  14 F= -.11565369E+04 E0= -.11565369E+04  d E =-.485600E-02  mag=    14.0000
       N       E                     dE             d eps       ncg     rms          rms(c)
DAV:   1    -0.115653611131E+04    0.82909E-03   -0.20489E+00 12816   0.165E+00    0.295E-01
RMM:   2    -0.115654069983E+04   -0.45885E-02   -0.49087E-02 12653   0.278E-01    0.179E-01
RMM:   3    -0.115654068418E+04    0.15645E-04   -0.24697E-03 12609   0.934E-02    0.115E-01
RMM:   4    -0.115654059001E+04    0.94173E-04   -0.63757E-04 11726   0.285E-02    0.578E-02
RMM:   5    -0.115654059165E+04   -0.16465E-05   -0.14621E-04  7433   0.164E-02    0.161E-02
RMM:   6    -0.115654059766E+04   -0.60069E-05   -0.48135E-05  7115   0.105E-02    0.118E-02
RMM:   7    -0.115654060126E+04   -0.35996E-05   -0.31661E-05  6834   0.755E-03    0.961E-03
RMM:   8    -0.115654060380E+04   -0.25379E-05   -0.19644E-05  6637   0.660E-03
  15 F= -.11565406E+04 E0= -.11565406E+04  d E =-.365988E-02  mag=    14.0000
       N       E                     dE             d eps       ncg     rms          rms(c)
DAV:   1    -0.115654033838E+04    0.26288E-03   -0.14415E+00 12848   0.139E+00    0.245E-01
RMM:   2    -0.115654358045E+04   -0.32421E-02   -0.34766E-02 12618   0.234E-01    0.150E-01
RMM:   3    -0.115654356913E+04    0.11311E-04   -0.17489E-03 12262   0.793E-02    0.971E-02
RMM:   4    -0.115654350618E+04    0.62951E-04   -0.45416E-04 10237   0.242E-02    0.507E-02
RMM:   5    -0.115654350343E+04    0.27493E-05   -0.10701E-04  7251   0.148E-02    0.164E-02
RMM:   6    -0.115654350819E+04   -0.47547E-05   -0.38146E-05  7024   0.947E-03    0.116E-02
RMM:   7    -0.115654351092E+04   -0.27338E-05   -0.23984E-05  6721   0.673E-03    0.788E-03
RMM:   8    -0.115654351282E+04   -0.19022E-05   -0.15293E-05  6564   0.584E-03
  16 F= -.11565435E+04 E0= -.11565435E+04  d E =-.290903E-02  mag=    14.0000
       N       E                     dE             d eps       ncg     rms          rms(c)
DAV:   1    -0.115654338483E+04    0.12609E-03   -0.11546E+00 12800   0.124E+00    0.219E-01
RMM:   2    -0.115654597573E+04   -0.25909E-02   -0.27660E-02 12616   0.208E-01    0.130E-01
RMM:   3    -0.115654596609E+04    0.96382E-05   -0.13857E-03 11915   0.710E-02    0.840E-02
RMM:   4    -0.115654591388E+04    0.52210E-04   -0.35096E-04  8973   0.218E-02    0.415E-02
RMM:   5    -0.115654591559E+04   -0.17111E-05   -0.81788E-05  7161   0.135E-02    0.128E-02
RMM:   6    -0.115654591973E+04   -0.41380E-05   -0.32424E-05  6983   0.848E-03    0.102E-02
RMM:   7    -0.115654592195E+04   -0.22241E-05   -0.20073E-05  6674   0.631E-03    0.647E-03
RMM:   8    -0.115654592348E+04   -0.15320E-05   -0.12950E-05  6270   0.525E-03
  17 F= -.11565459E+04 E0= -.11565459E+04  d E =-.241066E-02  mag=    14.0000
       N       E                     dE             d eps       ncg     rms          rms(c)
DAV:   1    -0.115654650340E+04   -0.58145E-03   -0.20443E-01 12912   0.525E-01    0.934E-02
RMM:   2    -0.115654697311E+04   -0.46972E-03   -0.50242E-03 12792   0.883E-02    0.564E-02
RMM:   3    -0.115654696308E+04    0.10036E-04   -0.20595E-04  7746   0.283E-02    0.362E-02
RMM:   4    -0.115654695389E+04    0.91924E-05   -0.61378E-05  7036   0.107E-02    0.173E-02
RMM:   5    -0.115654695598E+04   -0.20907E-05   -0.22494E-05  6843   0.673E-03    0.554E-03
RMM:   6    -0.115654695718E+04   -0.12038E-05   -0.96190E-06  6050   0.472E-03    0.367E-03
RMM:   7    -0.115654695790E+04   -0.71581E-06   -0.57673E-06  5165   0.357E-03    0.274E-03
RMM:   8    -0.115654695840E+04   -0.50542E-06   -0.33662E-06  4439   0.316E-03
  18 F= -.11565470E+04 E0= -.11565470E+04  d E =-.103492E-02  mag=    14.0000
       N       E                     dE             d eps       ncg     rms          rms(c)
DAV:   1    -0.115654721637E+04   -0.25848E-03   -0.61323E-01 12768   0.906E-01    0.158E-01
RMM:   2    -0.115654857796E+04   -0.13616E-02   -0.14609E-02 12450   0.151E-01    0.936E-02
RMM:   3    -0.115654857450E+04    0.34510E-05   -0.73285E-04 10476   0.532E-02    0.608E-02
RMM:   4    -0.115654854506E+04    0.29444E-04   -0.16821E-04  7448   0.162E-02    0.305E-02
RMM:   5    -0.115654854736E+04   -0.22963E-05   -0.50204E-05  7047   0.105E-02    0.156E-02
RMM:   6    -0.115654854986E+04   -0.25040E-05   -0.20991E-05  6846   0.667E-03    0.907E-03
RMM:   7    -0.115654855128E+04   -0.14184E-05   -0.12532E-05  6419   0.511E-03    0.637E-03
RMM:   8    -0.115654855213E+04   -0.85593E-06   -0.77186E-06  5528   0.407E-03
  19 F= -.11565486E+04 E0= -.11565486E+04  d E =-.159373E-02  mag=    14.0000
       N       E                     dE             d eps       ncg     rms          rms(c)
DAV:   1    -0.115654828937E+04    0.26191E-03   -0.10288E+00 12800   0.118E+00    0.205E-01
RMM:   2    -0.115655058372E+04   -0.22943E-02   -0.24610E-02 12518   0.196E-01    0.124E-01
RMM:   3    -0.115655057307E+04    0.10650E-04   -0.12273E-03 11745   0.677E-02    0.797E-02
RMM:   4    -0.115655052374E+04    0.49328E-04   -0.29561E-04  8351   0.203E-02    0.401E-02
RMM:   5    -0.115655052434E+04   -0.60444E-06   -0.73088E-05  7130   0.129E-02    0.118E-02
RMM:   6    -0.115655052796E+04   -0.36146E-05   -0.28979E-05  6957   0.795E-03    0.934E-03
RMM:   7    -0.115655052980E+04   -0.18477E-05   -0.17409E-05  6614   0.603E-03    0.622E-03
RMM:   8    -0.115655053102E+04   -0.12179E-05   -0.11268E-05  6278   0.480E-03
  20 F= -.11565505E+04 E0= -.11565505E+04  d E =-.197889E-02  mag=    14.0000
       N       E                     dE             d eps       ncg     rms          rms(c)
DAV:   1    -0.115655014000E+04    0.38981E-03   -0.96915E-01 12800   0.114E+00    0.198E-01
RMM:   2    -0.115655231666E+04   -0.21767E-02   -0.23279E-02 12665   0.190E-01    0.119E-01
RMM:   3    -0.115655229780E+04    0.18861E-04   -0.11190E-03 11427   0.636E-02    0.763E-02
RMM:   4    -0.115655225008E+04    0.47720E-04   -0.26956E-04  8117   0.200E-02    0.367E-02
RMM:   5    -0.115655225342E+04   -0.33340E-05   -0.70779E-05  7115   0.126E-02    0.102E-02
RMM:   6    -0.115655225700E+04   -0.35888E-05   -0.28801E-05  6948   0.784E-03    0.769E-03
RMM:   7    -0.115655225884E+04   -0.18338E-05   -0.17392E-05  6614   0.594E-03    0.524E-03
RMM:   8    -0.115655226008E+04   -0.12402E-05   -0.11245E-05  6095   0.479E-03
  21 F= -.11565523E+04 E0= -.11565523E+04  d E =-.172906E-02  mag=    14.0000
       N       E                     dE             d eps       ncg     rms          rms(c)
DAV:   1    -0.115655256659E+04   -0.30775E-03   -0.31691E-01 12760   0.654E-01    0.116E-01
RMM:   2    -0.115655328739E+04   -0.72080E-03   -0.77511E-03 12688   0.110E-01    0.711E-02
RMM:   3    -0.115655327531E+04    0.12080E-04   -0.33533E-04  8415   0.360E-02    0.460E-02
RMM:   4    -0.115655325940E+04    0.15912E-04   -0.90122E-05  7078   0.129E-02    0.226E-02
RMM:   5    -0.115655326198E+04   -0.25740E-05   -0.31305E-05  6951   0.819E-03    0.101E-02
RMM:   6    -0.115655326361E+04   -0.16368E-05   -0.13870E-05  6643   0.557E-03    0.637E-03
RMM:   7    -0.115655326452E+04   -0.90907E-06   -0.82089E-06  5925   0.427E-03    0.408E-03
RMM:   8    -0.115655326508E+04   -0.56204E-06   -0.49329E-06  4827   0.354E-03
  22 F= -.11565533E+04 E0= -.11565533E+04  d E =-.100501E-02  mag=    14.0000
       N       E                     dE             d eps       ncg     rms          rms(c)
DAV:   1    -0.115655329932E+04   -0.34798E-04   -0.48862E-01 12800   0.809E-01    0.140E-01
RMM:   2    -0.115655439344E+04   -0.10941E-02   -0.11705E-02 12500   0.135E-01    0.845E-02
RMM:   3    -0.115655438704E+04    0.63996E-05   -0.56639E-04  9712   0.469E-02    0.545E-02
RMM:   4    -0.115655436366E+04    0.23378E-04   -0.13229E-04  7233   0.148E-02    0.271E-02
RMM:   5    -0.115655436635E+04   -0.26919E-05   -0.41154E-05  6987   0.951E-03    0.156E-02
RMM:   6    -0.115655436844E+04   -0.20887E-05   -0.17955E-05  6775   0.617E-03    0.790E-03
RMM:   7    -0.115655436963E+04   -0.11937E-05   -0.10614E-05  6249   0.476E-03    0.593E-03
RMM:   8    -0.115655437035E+04   -0.71492E-06   -0.64881E-06  5160   0.380E-03
  23 F= -.11565544E+04 E0= -.11565544E+04  d E =-.110526E-02  mag=    14.0000
       N       E                     dE             d eps       ncg     rms          rms(c)
DAV:   1    -0.115655448028E+04   -0.11064E-03   -0.37945E-01 12736   0.713E-01    0.123E-01
RMM:   2    -0.115655533124E+04   -0.85096E-03   -0.91318E-03 12527   0.119E-01    0.747E-02
RMM:   3    -0.115655532279E+04    0.84467E-05   -0.42503E-04  8870   0.413E-02    0.483E-02
RMM:   4    -0.115655530474E+04    0.18054E-04   -0.10409E-04  7092   0.135E-02    0.237E-02
RMM:   5    -0.115655530741E+04   -0.26665E-05   -0.34075E-05  6935   0.858E-03    0.825E-03
RMM:   6    -0.115655530925E+04   -0.18430E-05   -0.15246E-05  6653   0.573E-03    0.583E-03
RMM:   7    -0.115655531023E+04   -0.97617E-06   -0.89424E-06  5942   0.441E-03    0.388E-03
RMM:   8    -0.115655531086E+04   -0.63496E-06   -0.54320E-06  4890   0.362E-03
  24 F= -.11565553E+04 E0= -.11565553E+04  d E =-.940514E-03  mag=    14.0000
