       N       E                     dE             d eps       ncg     rms          rms(c)
DAV:   1    -0.115719872522E+04   -0.11572E+04   -0.28463E-06  7184   0.286E-03    0.214E-03
RMM:   2    -0.115719872578E+04   -0.56029E-06   -0.11244E-06  2894   0.212E-03    0.214E-03
RMM:   3    -0.115719872596E+04   -0.17759E-06   -0.18649E-07  1516   0.162E-03    0.181E-03
RMM:   4    -0.115719872618E+04   -0.22064E-06   -0.13522E-07  1290   0.164E-03    0.192E-03
RMM:   5    -0.115719872617E+04    0.82509E-08   -0.42678E-08  1010   0.159E-03    0.181E-03
RMM:   6    -0.115719872624E+04   -0.72410E-07   -0.65382E-08  1031   0.162E-03    0.234E-03
RMM:   7    -0.115719872634E+04   -0.91342E-07   -0.84441E-08  1002   0.163E-03    0.258E-03
RMM:   8    -0.115719872644E+04   -0.10531E-06   -0.13758E-07  1139   0.166E-03
   1 F= -.11571987E+04 E0= -.11571987E+04  d E =-.115720E+04  mag=    14.0000
       N       E                     dE             d eps       ncg     rms          rms(c)
DAV:   1    -0.115719912196E+04   -0.39563E-03   -0.38370E-01 12800   0.725E-01    0.208E-01
RMM:   2    -0.115719971431E+04   -0.59235E-03   -0.12155E-02 12320   0.144E-01    0.198E-01
RMM:   3    -0.115719962122E+04    0.93090E-04   -0.64203E-04 11305   0.477E-02    0.130E-01
RMM:   4    -0.115719950243E+04    0.11879E-03   -0.37910E-04 10406   0.215E-02    0.738E-02
RMM:   5    -0.115719946472E+04    0.37708E-04   -0.81917E-05  7821   0.141E-02    0.222E-02
RMM:   6    -0.115719946667E+04   -0.19523E-05   -0.23622E-05  7035   0.672E-03    0.180E-02
RMM:   7    -0.115719946752E+04   -0.84715E-06   -0.96918E-06  6436   0.502E-03    0.138E-02
RMM:   8    -0.115719946824E+04   -0.72492E-06   -0.63348E-06  6082   0.344E-03
   2 F= -.11571995E+04 E0= -.11571995E+04  d E =-.741804E-03  mag=    14.0000
       N       E                     dE             d eps       ncg     rms          rms(c)
DAV:   1    -0.115720038456E+04   -0.91704E-03   -0.95221E-02 12264   0.355E-01    0.105E-01
RMM:   2    -0.115720045407E+04   -0.69515E-04   -0.32963E-03 12143   0.743E-02    0.116E-01
RMM:   3    -0.115720041163E+04    0.42440E-04   -0.12905E-04  7570   0.231E-02    0.804E-02
RMM:   4    -0.115720036576E+04    0.45876E-04   -0.11704E-04  7292   0.127E-02    0.446E-02
RMM:   5    -0.115720035294E+04    0.12816E-04   -0.36605E-05  6898   0.858E-03    0.298E-02
RMM:   6    -0.115720035342E+04   -0.47627E-06   -0.11819E-05  5997   0.502E-03    0.143E-02
RMM:   7    -0.115720035365E+04   -0.23084E-06   -0.51477E-06  5165   0.359E-03    0.114E-02
RMM:   8    -0.115720035388E+04   -0.23235E-06   -0.28778E-06  4792   0.273E-03
   3 F= -.11572004E+04 E0= -.11572004E+04  d E =-.885638E-03  mag=    14.0000
       N       E                     dE             d eps       ncg     rms          rms(c)
DAV:   1    -0.115720061962E+04   -0.26597E-03   -0.10211E-01 12352   0.374E-01    0.752E-02
RMM:   2    -0.115720084296E+04   -0.22335E-03   -0.26343E-03 12763   0.662E-02    0.546E-02
RMM:   3    -0.115720083457E+04    0.83953E-05   -0.10395E-04  7036   0.212E-02    0.350E-02
RMM:   4    -0.115720082817E+04    0.63974E-05   -0.41776E-05  6846   0.872E-03    0.181E-02
RMM:   5    -0.115720082795E+04    0.21684E-06   -0.12422E-05  6622   0.533E-03    0.788E-03
RMM:   6    -0.115720082852E+04   -0.56131E-06   -0.49168E-06  5462   0.343E-03    0.505E-03
RMM:   7    -0.115720082877E+04   -0.25905E-06   -0.23242E-06  4132   0.279E-03    0.304E-03
RMM:   8    -0.115720082892E+04   -0.14200E-06   -0.11278E-06  3022   0.225E-03
   4 F= -.11572008E+04 E0= -.11572008E+04  d E =-.475034E-03  mag=    14.0000
       N       E                     dE             d eps       ncg     rms          rms(c)
DAV:   1    -0.115720103487E+04   -0.20610E-03   -0.42626E-02 12160   0.239E-01    0.507E-02
RMM:   2    -0.115720112433E+04   -0.89459E-04   -0.10773E-03 12091   0.420E-02    0.346E-02
RMM:   3    -0.115720112085E+04    0.34853E-05   -0.49386E-05  6756   0.153E-02    0.221E-02
RMM:   4    -0.115720111786E+04    0.29854E-05   -0.22413E-05  6633   0.604E-03    0.130E-02
RMM:   5    -0.115720111786E+04    0.56752E-09   -0.57185E-06  5596   0.401E-03    0.943E-03
RMM:   6    -0.115720111812E+04   -0.25783E-06   -0.26788E-06  3844   0.260E-03    0.408E-03
RMM:   7    -0.115720111824E+04   -0.12170E-06   -0.12098E-06  3045   0.248E-03    0.266E-03
RMM:   8    -0.115720111829E+04   -0.47032E-07   -0.44732E-07  2084   0.208E-03
   5 F= -.11572011E+04 E0= -.11572011E+04  d E =-.289371E-03  mag=    14.0000
