       N       E                     dE             d eps       ncg     rms          rms(c)
DAV:   1     0.120163251796E+05    0.12016E+05   -0.42311E+05  6168   0.132E+03
DAV:   2     0.685461773326E+03   -0.11331E+05   -0.10123E+05  6152   0.378E+02
DAV:   3    -0.135350583705E+04   -0.20390E+04   -0.19637E+04  6576   0.167E+02
DAV:   4    -0.149304017051E+04   -0.13953E+03   -0.13697E+03  8144   0.458E+01
DAV:   5    -0.150222702998E+04   -0.91869E+01   -0.91289E+01 11168   0.109E+01    0.182E+02
RMM:   6    -0.116457899851E+04    0.33765E+03   -0.16304E+03  6273   0.356E+01    0.120E+02
RMM:   7    -0.114766721104E+04    0.16912E+02   -0.68875E+01  6402   0.119E+01    0.757E+01
RMM:   8    -0.115080643606E+04   -0.31392E+01   -0.26152E+01  7010   0.596E+00    0.421E+01
RMM:   9    -0.115639290447E+04   -0.55865E+01   -0.87364E+00  6872   0.333E+00    0.232E+01
RMM:  10    -0.115612006982E+04    0.27283E+00   -0.79815E+00  6851   0.309E+00    0.163E+01
RMM:  11    -0.115725141742E+04   -0.11313E+01   -0.90748E-01  8218   0.911E-01    0.849E+00
RMM:  12    -0.115858563777E+04   -0.13342E+01   -0.14800E+00  6456   0.136E+00    0.760E+00
RMM:  13    -0.115951724653E+04   -0.93161E+00   -0.92204E-01  6888   0.955E-01    0.406E+00
RMM:  14    -0.115975662096E+04   -0.23937E+00   -0.30830E-01  7147   0.595E-01    0.175E+00
RMM:  15    -0.115979432367E+04   -0.37703E-01   -0.12018E-01  7431   0.361E-01    0.115E+00
RMM:  16    -0.115985287284E+04   -0.58549E-01   -0.83041E-02  6976   0.269E-01    0.916E-01
RMM:  17    -0.115988391403E+04   -0.31041E-01   -0.43312E-02  7185   0.194E-01    0.576E-01
RMM:  18    -0.115989458448E+04   -0.10670E-01   -0.13324E-02  7180   0.111E-01    0.362E-01
RMM:  19    -0.115990708440E+04   -0.12500E-01   -0.11107E-02  6396   0.932E-02    0.315E-01
RMM:  20    -0.115992207342E+04   -0.14989E-01   -0.14361E-02  5829   0.106E-01    0.290E-01
RMM:  21    -0.115994444376E+04   -0.22370E-01   -0.36935E-02  5702   0.155E-01    0.270E-01
RMM:  22    -0.115996404930E+04   -0.19606E-01   -0.43351E-02  5775   0.165E-01    0.230E-01
RMM:  23    -0.115997782460E+04   -0.13775E-01   -0.29801E-02  5833   0.129E-01    0.205E-01
RMM:  24    -0.115999188900E+04   -0.14064E-01   -0.35820E-02  5655   0.149E-01    0.174E-01
RMM:  25    -0.115999753005E+04   -0.56411E-02   -0.13336E-02  5617   0.877E-02    0.176E-01
RMM:  26    -0.116000373891E+04   -0.62089E-02   -0.99191E-02  5792   0.275E-01    0.282E-01
RMM:  27    -0.116001430612E+04   -0.10567E-01   -0.90319E-03  5727   0.830E-02    0.809E-02
RMM:  28    -0.116001752587E+04   -0.32197E-02   -0.16186E-02  5406   0.933E-02    0.770E-02
RMM:  29    -0.116001943054E+04   -0.19047E-02   -0.12744E-02  5365   0.828E-02    0.570E-02
RMM:  30    -0.116002021078E+04   -0.78024E-03   -0.50023E-03  5081   0.480E-02    0.493E-02
RMM:  31    -0.116002065247E+04   -0.44169E-03   -0.22004E-03  4671   0.339E-02    0.285E-02
RMM:  32    -0.116002072646E+04   -0.73991E-04   -0.80243E-04  4436   0.206E-02
   1 F= -.11600207E+04 E0= -.11600207E+04  d E =-.116002E+04  mag=     7.9988
       N       E                     dE             d eps       ncg     rms          rms(c)
DAV:   1    -0.115629706637E+04    0.37236E+01   -0.73983E+02  6568   0.275E+01    0.131E+01
RMM:   2    -0.115944496879E+04   -0.31479E+01   -0.41576E+01  6159   0.625E+00    0.104E+01
RMM:   3    -0.115933485868E+04    0.11011E+00   -0.22598E+00  6503   0.209E+00    0.663E+00
RMM:   4    -0.115936733526E+04   -0.32477E-01   -0.10783E+00  6852   0.808E-01    0.450E+00
RMM:   5    -0.115920486135E+04    0.16247E+00   -0.28503E-01  6766   0.440E-01    0.114E+00
RMM:   6    -0.115920335183E+04    0.15095E-02   -0.35728E-02  8189   0.167E-01    0.628E-01
RMM:   7    -0.115920326088E+04    0.90950E-04   -0.12149E-02  8366   0.831E-02    0.361E-01
RMM:   8    -0.115920323691E+04    0.23966E-04   -0.29838E-03  7613   0.515E-02    0.115E-01
RMM:   9    -0.115920336710E+04   -0.13018E-03   -0.10358E-03  6714   0.269E-02    0.650E-02
RMM:  10    -0.115920345806E+04   -0.90960E-04   -0.42077E-04  5217   0.184E-02
   2 F= -.11592035E+04 E0= -.11592035E+04  d E =0.817268E+00  mag=     8.0000
       N       E                     dE             d eps       ncg     rms          rms(c)
DAV:   1    -0.116052933165E+04   -0.13260E+01   -0.10068E+02  6720   0.100E+01    0.533E+00
RMM:   2    -0.116062786882E+04   -0.98537E-01   -0.35793E+00  6173   0.219E+00    0.434E+00
RMM:   3    -0.116054990096E+04    0.77968E-01   -0.24070E-01  6225   0.797E-01    0.260E+00
RMM:   4    -0.116050462627E+04    0.45275E-01   -0.20922E-01  6501   0.463E-01    0.136E+00
RMM:   5    -0.116049823652E+04    0.63898E-02   -0.23359E-02  6563   0.205E-01    0.649E-01
RMM:   6    -0.116049810111E+04    0.13541E-03   -0.81790E-03  8066   0.741E-02    0.392E-01
RMM:   7    -0.116049814977E+04   -0.48665E-04   -0.19246E-03  7269   0.412E-02    0.149E-01
RMM:   8    -0.116049813648E+04    0.13293E-04   -0.54086E-04  6215   0.233E-02
   3 F= -.11604981E+04 E0= -.11604981E+04  d E =-.129468E+01  mag=     8.0000
       N       E                     dE             d eps       ncg     rms          rms(c)
DAV:   1    -0.116067271786E+04   -0.17457E+00   -0.33534E+01  6696   0.620E+00    0.230E+00
RMM:   2    -0.116073751203E+04   -0.64794E-01   -0.10653E+00  6152   0.122E+00    0.267E+00
RMM:   3    -0.116072583374E+04    0.11678E-01   -0.50740E-02  6665   0.355E-01    0.202E+00
RMM:   4    -0.116072150994E+04    0.43238E-02   -0.30937E-02  6447   0.176E-01    0.972E-01
RMM:   5    -0.116071573641E+04    0.57735E-02   -0.83526E-03  6258   0.101E-01    0.193E-01
RMM:   6    -0.116071555776E+04    0.17865E-03   -0.15863E-03  6199   0.356E-02    0.137E-01
RMM:   7    -0.116071548059E+04    0.77163E-04   -0.34794E-04  4807   0.168E-02    0.712E-02
RMM:   8    -0.116071548741E+04   -0.68133E-05   -0.15131E-04  4150   0.141E-02
   4 F= -.11607155E+04 E0= -.11607155E+04  d E =-.217351E+00  mag=     8.0000
       N       E                     dE             d eps       ncg     rms          rms(c)
DAV:   1    -0.116077287797E+04   -0.57397E-01   -0.11672E+01  6424   0.365E+00    0.142E+00
RMM:   2    -0.116079561108E+04   -0.22733E-01   -0.35315E-01  6172   0.707E-01    0.131E+00
RMM:   3    -0.116079210791E+04    0.35032E-02   -0.19719E-02  6543   0.215E-01    0.858E-01
RMM:   4    -0.116078998596E+04    0.21220E-02   -0.11555E-02  6420   0.106E-01    0.351E-01
RMM:   5    -0.116078910807E+04    0.87788E-03   -0.22115E-03  6019   0.563E-02    0.110E-01
RMM:   6    -0.116078911923E+04   -0.11157E-04   -0.38839E-04  5014   0.184E-02    0.804E-02
RMM:   7    -0.116078913651E+04   -0.17276E-04   -0.12424E-04  4014   0.135E-02    0.427E-02
RMM:   8    -0.116078915483E+04   -0.18323E-04   -0.74303E-05  3818   0.101E-02
   5 F= -.11607892E+04 E0= -.11607892E+04  d E =-.736674E-01  mag=     8.0000
       N       E                     dE             d eps       ncg     rms          rms(c)
DAV:   1    -0.116080077341E+04   -0.11637E-01   -0.93976E+00  6496   0.347E+00    0.103E+00
RMM:   2    -0.116082098567E+04   -0.20212E-01   -0.25300E-01  6199   0.623E-01    0.898E-01
RMM:   3    -0.116082009526E+04    0.89040E-03   -0.14047E-02  6423   0.215E-01    0.602E-01
RMM:   4    -0.116081932437E+04    0.77089E-03   -0.61678E-03  6969   0.821E-02    0.294E-01
RMM:   5    -0.116081890987E+04    0.41450E-03   -0.14449E-03  6340   0.395E-02    0.675E-02
RMM:   6    -0.116081891106E+04   -0.11887E-05   -0.18727E-04  4206   0.159E-02    0.399E-02
RMM:   7    -0.116081892202E+04   -0.10954E-04   -0.97673E-05  3795   0.119E-02    0.225E-02
RMM:   8    -0.116081893334E+04   -0.11324E-04   -0.55049E-05  3641   0.933E-03
   6 F= -.11608189E+04 E0= -.11608189E+04  d E =-.297785E-01  mag=     8.0000
       N       E                     dE             d eps       ncg     rms          rms(c)
DAV:   1    -0.116082547966E+04   -0.65576E-02   -0.33366E+00  6432   0.206E+00    0.472E-01
RMM:   2    -0.116083313850E+04   -0.76588E-02   -0.91757E-02  6198   0.380E-01    0.480E-01
RMM:   3    -0.116083301994E+04    0.11856E-03   -0.51101E-03  6428   0.131E-01    0.348E-01
RMM:   4    -0.116083283439E+04    0.18555E-03   -0.16260E-03  6261   0.449E-02    0.239E-01
RMM:   5    -0.116083263004E+04    0.20434E-03   -0.65196E-04  5501   0.270E-02    0.495E-02
RMM:   6    -0.116083263083E+04   -0.79104E-06   -0.78632E-05  3747   0.142E-02    0.272E-02
RMM:   7    -0.116083263231E+04   -0.14703E-05   -0.37884E-05  3582   0.813E-03    0.192E-02
RMM:   8    -0.116083263465E+04   -0.23453E-05   -0.21586E-05  3482   0.701E-03
   7 F= -.11608326E+04 E0= -.11608326E+04  d E =-.137013E-01  mag=     8.0000
       N       E                     dE             d eps       ncg     rms          rms(c)
DAV:   1    -0.116082545366E+04    0.71786E-02   -0.15330E+01  6384   0.443E+00    0.867E-01
RMM:   2    -0.116085903563E+04   -0.33582E-01   -0.36670E-01  6333   0.733E-01    0.581E-01
RMM:   3    -0.116085884522E+04    0.19041E-03   -0.18846E-02  6404   0.259E-01    0.382E-01
RMM:   4    -0.116085799675E+04    0.84847E-03   -0.56160E-03  7648   0.822E-02    0.197E-01
RMM:   5    -0.116085797944E+04    0.17311E-04   -0.11264E-03  6803   0.325E-02    0.505E-02
RMM:   6    -0.116085799971E+04   -0.20273E-04   -0.19606E-04  4307   0.164E-02    0.289E-02
RMM:   7    -0.116085801611E+04   -0.16394E-04   -0.11803E-04  3901   0.121E-02    0.187E-02
RMM:   8    -0.116085802749E+04   -0.11381E-04   -0.76606E-05  3750   0.101E-02
   8 F= -.11608580E+04 E0= -.11608580E+04  d E =-.253928E-01  mag=     8.0000
       N       E                     dE             d eps       ncg     rms          rms(c)
DAV:   1    -0.116085182234E+04    0.61938E-02   -0.99636E+00  6352   0.357E+00    0.662E-01
RMM:   2    -0.116087369147E+04   -0.21869E-01   -0.23900E-01  6365   0.591E-01    0.440E-01
RMM:   3    -0.116087344673E+04    0.24474E-03   -0.11928E-02  6473   0.203E-01    0.294E-01
RMM:   4    -0.116087290677E+04    0.53996E-03   -0.36891E-03  7381   0.666E-02    0.153E-01
RMM:   5    -0.116087288114E+04    0.25633E-04   -0.71056E-04  6136   0.273E-02    0.417E-02
RMM:   6    -0.116087289730E+04   -0.16161E-04   -0.13444E-04  4072   0.147E-02    0.246E-02
RMM:   7    -0.116087291131E+04   -0.14009E-04   -0.90555E-05  3781   0.110E-02    0.165E-02
RMM:   8    -0.116087292132E+04   -0.10018E-04   -0.62404E-05  3675   0.922E-03
   9 F= -.11608729E+04 E0= -.11608729E+04  d E =-.148938E-01  mag=     8.0000
       N       E                     dE             d eps       ncg     rms          rms(c)
DAV:   1    -0.116087195452E+04    0.95679E-03   -0.44574E+00  6416   0.238E+00    0.415E-01
RMM:   2    -0.116088186293E+04   -0.99084E-02   -0.10734E-01  6345   0.393E-01    0.267E-01
RMM:   3    -0.116088175815E+04    0.10478E-03   -0.52969E-03  6407   0.134E-01    0.178E-01
RMM:   4    -0.116088153056E+04    0.22759E-03   -0.14788E-03  6703   0.432E-02    0.910E-02
RMM:   5    -0.116088152643E+04    0.41313E-05   -0.30738E-04  4781   0.203E-02    0.252E-02
RMM:   6    -0.116088153586E+04   -0.94292E-05   -0.63153E-05  3665   0.124E-02    0.152E-02
RMM:   7    -0.116088154413E+04   -0.82750E-05   -0.56054E-05  3575   0.925E-03    0.131E-02
RMM:   8    -0.116088155041E+04   -0.62828E-05   -0.35564E-05  3475   0.783E-03
  10 F= -.11608816E+04 E0= -.11608816E+04  d E =-.862909E-02  mag=     8.0000
       N       E                     dE             d eps       ncg     rms          rms(c)
DAV:   1    -0.116087901272E+04    0.25314E-02   -0.48669E+00  6352   0.248E+00    0.436E-01
RMM:   2    -0.116088982017E+04   -0.10807E-01   -0.11671E-01  6349   0.411E-01    0.281E-01
RMM:   3    -0.116088974516E+04    0.75001E-04   -0.58077E-03  6434   0.141E-01    0.185E-01
RMM:   4    -0.116088950555E+04    0.23962E-03   -0.15401E-03  6805   0.446E-02    0.993E-02
RMM:   5    -0.116088948939E+04    0.16158E-04   -0.35619E-04  4998   0.209E-02    0.253E-02
RMM:   6    -0.116088949763E+04   -0.82374E-05   -0.60521E-05  3659   0.127E-02    0.151E-02
RMM:   7    -0.116088950595E+04   -0.83269E-05   -0.55047E-05  3567   0.880E-03    0.116E-02
RMM:   8    -0.116088951153E+04   -0.55772E-05   -0.31323E-05  3453   0.787E-03
  11 F= -.11608895E+04 E0= -.11608895E+04  d E =-.796112E-02  mag=     8.0000
       N       E                     dE             d eps       ncg     rms          rms(c)
DAV:   1    -0.116088765056E+04    0.18554E-02   -0.38157E+00  6400   0.219E+00    0.389E-01
RMM:   2    -0.116089604579E+04   -0.83952E-02   -0.90757E-02  6361   0.361E-01    0.250E-01
RMM:   3    -0.116089595810E+04    0.87695E-04   -0.44838E-03  6414   0.123E-01    0.162E-01
RMM:   4    -0.116089576385E+04    0.19425E-03   -0.11784E-03  6438   0.392E-02    0.872E-02
RMM:   5    -0.116089574685E+04    0.16998E-04   -0.28434E-04  4586   0.203E-02    0.228E-02
RMM:   6    -0.116089575444E+04   -0.75810E-05   -0.52982E-05  3606   0.121E-02    0.139E-02
RMM:   7    -0.116089576168E+04   -0.72465E-05   -0.44860E-05  3518   0.845E-03    0.109E-02
RMM:   8    -0.116089576726E+04   -0.55811E-05   -0.27836E-05  3419   0.749E-03
  12 F= -.11608958E+04 E0= -.11608958E+04  d E =-.625573E-02  mag=     8.0000
       N       E                     dE             d eps       ncg     rms          rms(c)
DAV:   1    -0.116089214938E+04    0.36123E-02   -0.41596E+00  6336   0.228E+00    0.400E-01
RMM:   2    -0.116090138357E+04   -0.92342E-02   -0.99101E-02  6372   0.377E-01    0.255E-01
RMM:   3    -0.116090133068E+04    0.52890E-04   -0.49706E-03  6446   0.129E-01    0.167E-01
RMM:   4    -0.116090113148E+04    0.19920E-03   -0.12637E-03  6542   0.407E-02    0.918E-02
RMM:   5    -0.116090110880E+04    0.22683E-04   -0.32308E-04  4761   0.207E-02    0.250E-02
RMM:   6    -0.116090111627E+04   -0.74745E-05   -0.56659E-05  3633   0.125E-02    0.151E-02
RMM:   7    -0.116090112391E+04   -0.76358E-05   -0.45266E-05  3544   0.858E-03    0.117E-02
RMM:   8    -0.116090112922E+04   -0.53146E-05   -0.26987E-05  3439   0.766E-03
  13 F= -.11609011E+04 E0= -.11609011E+04  d E =-.536196E-02  mag=     8.0000
       N       E                     dE             d eps       ncg     rms          rms(c)
DAV:   1    -0.116089942161E+04    0.17023E-02   -0.24988E+00  6416   0.177E+00    0.321E-01
RMM:   2    -0.116090497968E+04   -0.55581E-02   -0.59104E-02  6374   0.292E-01    0.197E-01
RMM:   3    -0.116090495468E+04    0.24997E-04   -0.29603E-03  6368   0.991E-02    0.127E-01
RMM:   4    -0.116090483143E+04    0.12325E-03   -0.71483E-04  5771   0.314E-02    0.657E-02
RMM:   5    -0.116090483002E+04    0.14103E-05   -0.17336E-04  3840   0.179E-02    0.180E-02
RMM:   6    -0.116090483732E+04   -0.73040E-05   -0.45491E-05  3541   0.109E-02    0.115E-02
RMM:   7    -0.116090484216E+04   -0.48325E-05   -0.30584E-05  3445   0.785E-03    0.101E-02
RMM:   8    -0.116090484641E+04   -0.42500E-05   -0.20778E-05  3356   0.659E-03
  14 F= -.11609048E+04 E0= -.11609048E+04  d E =-.371719E-02  mag=     8.0000
       N       E                     dE             d eps       ncg     rms          rms(c)
DAV:   1    -0.116090437763E+04    0.46453E-03   -0.12844E+00  6432   0.127E+00    0.227E-01
RMM:   2    -0.116090728215E+04   -0.29045E-02   -0.30918E-02  6395   0.212E-01    0.140E-01
RMM:   3    -0.116090726895E+04    0.13204E-04   -0.15325E-03  5972   0.710E-02    0.911E-02
RMM:   4    -0.116090720264E+04    0.66305E-04   -0.34838E-04  4513   0.230E-02    0.496E-02
RMM:   5    -0.116090719992E+04    0.27193E-05   -0.10520E-04  3643   0.147E-02    0.156E-02
RMM:   6    -0.116090720481E+04   -0.48846E-05   -0.32304E-05  3479   0.925E-03    0.103E-02
RMM:   7    -0.116090720809E+04   -0.32870E-05   -0.20276E-05  3360   0.629E-03    0.804E-03
RMM:   8    -0.116090721135E+04   -0.32547E-05   -0.13064E-05  3294   0.560E-03
  15 F= -.11609072E+04 E0= -.11609072E+04  d E =-.236494E-02  mag=     8.0000
       N       E                     dE             d eps       ncg     rms          rms(c)
DAV:   1    -0.116090550150E+04    0.17066E-02   -0.19197E+00  6384   0.156E+00    0.280E-01
RMM:   2    -0.116090983255E+04   -0.43310E-02   -0.45773E-02  6395   0.257E-01    0.170E-01
RMM:   3    -0.116090981439E+04    0.18156E-04   -0.22247E-03  6249   0.853E-02    0.110E-01
RMM:   4    -0.116090972138E+04    0.93012E-04   -0.50357E-04  5104   0.271E-02    0.599E-02
RMM:   5    -0.116090971481E+04    0.65718E-05   -0.14156E-04  3720   0.165E-02    0.165E-02
RMM:   6    -0.116090972059E+04   -0.57863E-05   -0.38445E-05  3520   0.103E-02    0.965E-03
RMM:   7    -0.116090972433E+04   -0.37376E-05   -0.24784E-05  3408   0.688E-03    0.824E-03
RMM:   8    -0.116090972734E+04   -0.30136E-05   -0.14993E-05  3315   0.608E-03
  16 F= -.11609097E+04 E0= -.11609097E+04  d E =-.251599E-02  mag=     8.0000
       N       E                     dE             d eps       ncg     rms          rms(c)
DAV:   1    -0.116090888977E+04    0.83456E-03   -0.11734E+00  6384   0.122E+00    0.229E-01
RMM:   2    -0.116091156753E+04   -0.26778E-02   -0.28125E-02  6443   0.202E-01    0.132E-01
RMM:   3    -0.116091155249E+04    0.15038E-04   -0.13509E-03  5842   0.661E-02    0.833E-02
RMM:   4    -0.116091149260E+04    0.59893E-04   -0.28551E-04  4194   0.217E-02    0.439E-02
RMM:   5    -0.116091149093E+04    0.16667E-05   -0.96979E-05  3603   0.140E-02    0.137E-02
RMM:   6    -0.116091149552E+04   -0.45822E-05   -0.30323E-05  3470   0.912E-03    0.962E-03
RMM:   7    -0.116091149837E+04   -0.28503E-05   -0.19156E-05  3332   0.594E-03    0.765E-03
RMM:   8    -0.116091150116E+04   -0.27907E-05   -0.11910E-05  3244   0.555E-03
  17 F= -.11609115E+04 E0= -.11609115E+04  d E =-.177381E-02  mag=     8.0000
       N       E                     dE             d eps       ncg     rms          rms(c)
DAV:   1    -0.116091072548E+04    0.77289E-03   -0.10054E+00  6384   0.113E+00    0.214E-01
RMM:   2    -0.116091304409E+04   -0.23186E-02   -0.24139E-02  6439   0.189E-01    0.125E-01
RMM:   3    -0.116091304395E+04    0.14124E-06   -0.11633E-03  5707   0.616E-02    0.787E-02
RMM:   4    -0.116091299322E+04    0.50733E-04   -0.22442E-04  3941   0.201E-02    0.434E-02
RMM:   5    -0.116091299012E+04    0.30987E-05   -0.93850E-05  3590   0.136E-02    0.180E-02
RMM:   6    -0.116091299421E+04   -0.40935E-05   -0.28193E-05  3455   0.912E-03    0.986E-03
RMM:   7    -0.116091299677E+04   -0.25592E-05   -0.17752E-05  3346   0.578E-03    0.794E-03
RMM:   8    -0.116091299869E+04   -0.19212E-05   -0.10047E-05  3186   0.546E-03
  18 F= -.11609130E+04 E0= -.11609130E+04  d E =-.149753E-02  mag=     8.0000
