       N       E                     dE             d eps       ncg     rms          rms(c)
DAV:   1    -0.115718821049E+04   -0.11572E+04   -0.27733E-06  3872   0.239E-03    0.299E-03
RMM:   2    -0.115718821054E+04   -0.42797E-07   -0.50299E-07  1436   0.205E-03    0.280E-03
RMM:   3    -0.115718821054E+04   -0.21100E-08   -0.12778E-08   598   0.152E-03    0.790E-04
RMM:   4    -0.115718821054E+04   -0.40891E-08   -0.12375E-08   483   0.153E-03    0.500E-04
RMM:   5    -0.115718821054E+04   -0.31578E-08   -0.79732E-09   396   0.153E-03    0.315E-04
RMM:   6    -0.115718821055E+04   -0.45111E-08   -0.22060E-08   368   0.155E-03    0.316E-04
RMM:   7    -0.115718821055E+04   -0.72760E-09   -0.20504E-09   328   0.154E-03    0.259E-04
RMM:   8    -0.115718821055E+04   -0.17899E-08   -0.57035E-09   319   0.155E-03
   1 F= -.11571882E+04 E0= -.11571882E+04  d E =-.115719E+04  mag=    14.0000
       N       E                     dE             d eps       ncg     rms          rms(c)
DAV:   1    -0.115718809025E+04    0.12030E-03   -0.26722E-01  6224   0.594E-01    0.217E-01
RMM:   2    -0.115718863482E+04   -0.54457E-03   -0.91600E-03  6155   0.122E-01    0.212E-01
RMM:   3    -0.115718856877E+04    0.66055E-04   -0.40492E-04  5026   0.370E-02    0.144E-01
RMM:   4    -0.115718848669E+04    0.82079E-04   -0.31468E-04  4984   0.197E-02    0.670E-02
RMM:   5    -0.115718846766E+04    0.19033E-04   -0.66968E-05  3815   0.123E-02    0.339E-02
RMM:   6    -0.115718846805E+04   -0.39533E-06   -0.15625E-05  3406   0.599E-03    0.156E-02
RMM:   7    -0.115718846828E+04   -0.23184E-06   -0.71746E-06  3025   0.394E-03    0.110E-02
RMM:   8    -0.115718846875E+04   -0.46770E-06   -0.44192E-06  2982   0.312E-03
   2 F= -.11571885E+04 E0= -.11571885E+04  d E =-.258200E-03  mag=    14.0000
       N       E                     dE             d eps       ncg     rms          rms(c)
DAV:   1    -0.115718905054E+04   -0.58225E-03   -0.72484E-02  6144   0.301E-01    0.117E-01
RMM:   2    -0.115718914152E+04   -0.90979E-04   -0.28047E-03  6035   0.670E-02    0.128E-01
RMM:   3    -0.115718910480E+04    0.36717E-04   -0.10705E-04  3731   0.196E-02    0.936E-02
RMM:   4    -0.115718906753E+04    0.37270E-04   -0.89434E-05  3574   0.117E-02    0.548E-02
RMM:   5    -0.115718905802E+04    0.95134E-05   -0.47963E-05  3476   0.904E-03    0.365E-02
RMM:   6    -0.115718905825E+04   -0.23455E-06   -0.11437E-05  2995   0.589E-03    0.146E-02
RMM:   7    -0.115718905827E+04   -0.19849E-07   -0.45289E-06  2416   0.292E-03    0.110E-02
RMM:   8    -0.115718905838E+04   -0.11259E-06   -0.21347E-06  2207   0.279E-03
   3 F= -.11571891E+04 E0= -.11571891E+04  d E =-.589632E-03  mag=    14.0000
