       N       E                     dE             d eps       ncg     rms          rms(c)
DAV:   1    -0.116120706826E+04   -0.11612E+04   -0.14604E-05  7592   0.951E-03    0.804E-03
RMM:   2    -0.116120707838E+04   -0.10119E-04   -0.15713E-05  6343   0.605E-03    0.113E-02
RMM:   3    -0.116120708099E+04   -0.26135E-05   -0.64740E-06  5120   0.309E-03    0.844E-03
RMM:   4    -0.116120707968E+04    0.13113E-05   -0.26227E-06  4408   0.326E-03    0.878E-03
RMM:   5    -0.116120707932E+04    0.36096E-06   -0.12989E-06  2882   0.214E-03    0.853E-03
RMM:   6    -0.116120708388E+04   -0.45561E-05   -0.15092E-06  2962   0.255E-03    0.892E-03
RMM:   7    -0.116120710573E+04   -0.21851E-04   -0.21441E-05  5102   0.524E-03    0.144E-02
RMM:   8    -0.116120711011E+04   -0.43764E-05   -0.53014E-06  3194   0.253E-03
   1 F= -.11612071E+04 E0= -.11612071E+04  d E =-.116121E+04  mag=     8.0000
       N       E                     dE             d eps       ncg     rms          rms(c)
DAV:   1    -0.116120794116E+04   -0.83543E-03   -0.13994E+00 12768   0.135E+00    0.493E-01
RMM:   2    -0.116121011549E+04   -0.21743E-02   -0.46245E-02 12326   0.279E-01    0.442E-01
RMM:   3    -0.116120975390E+04    0.36159E-03   -0.27483E-03 12569   0.938E-02    0.272E-01
RMM:   4    -0.116120910713E+04    0.64677E-03   -0.18525E-03 11916   0.456E-02    0.133E-01
RMM:   5    -0.116120898984E+04    0.11729E-03   -0.39891E-04 10381   0.295E-02    0.542E-02
RMM:   6    -0.116120899483E+04   -0.49952E-05   -0.61862E-05  7552   0.939E-03    0.378E-02
RMM:   7    -0.116120900218E+04   -0.73446E-05   -0.29262E-05  7234   0.782E-03    0.235E-02
RMM:   8    -0.116120901157E+04   -0.93944E-05   -0.21457E-05  7078   0.637E-03
   2 F= -.11612090E+04 E0= -.11612090E+04  d E =-.190146E-02  mag=     8.0000
       N       E                     dE             d eps       ncg     rms          rms(c)
DAV:   1    -0.116121274480E+04   -0.37426E-02   -0.43048E-01 12936   0.749E-01    0.228E-01
RMM:   2    -0.116121296609E+04   -0.22129E-03   -0.15390E-02 12278   0.162E-01    0.257E-01
RMM:   3    -0.116121279424E+04    0.17185E-03   -0.84910E-04 11599   0.527E-02    0.175E-01
RMM:   4    -0.116121258649E+04    0.20776E-03   -0.56636E-04 10567   0.254E-02    0.102E-01
RMM:   5    -0.116121250921E+04    0.77273E-04   -0.15325E-04  8210   0.185E-02    0.313E-02
RMM:   6    -0.116121251398E+04   -0.47687E-05   -0.40637E-05  7135   0.897E-03    0.270E-02
RMM:   7    -0.116121251675E+04   -0.27642E-05   -0.14915E-05  6300   0.618E-03    0.212E-02
RMM:   8    -0.116121252280E+04   -0.60542E-05   -0.13996E-05  6684   0.466E-03
   3 F= -.11612125E+04 E0= -.11612125E+04  d E =-.351123E-02  mag=     8.0000
       N       E                     dE             d eps       ncg     rms          rms(c)
DAV:   1    -0.116121311973E+04   -0.60298E-03   -0.33858E-01 12784   0.671E-01    0.162E-01
RMM:   2    -0.116121397307E+04   -0.85335E-03   -0.85230E-03 12994   0.119E-01    0.106E-01
RMM:   3    -0.116121398030E+04   -0.72270E-05   -0.37425E-04  8924   0.370E-02    0.642E-02
RMM:   4    -0.116121395981E+04    0.20491E-04   -0.97184E-05  7151   0.142E-02    0.313E-02
RMM:   5    -0.116121396407E+04   -0.42565E-05   -0.41804E-05  6988   0.936E-03    0.107E-02
RMM:   6    -0.116121396777E+04   -0.37021E-05   -0.14178E-05  6767   0.603E-03    0.829E-03
RMM:   7    -0.116121397061E+04   -0.28442E-05   -0.81231E-06  6046   0.419E-03    0.696E-03
RMM:   8    -0.116121397501E+04   -0.44010E-05   -0.72104E-06  5655   0.375E-03
   4 F= -.11612140E+04 E0= -.11612140E+04  d E =-.145221E-02  mag=     8.0000
       N       E                     dE             d eps       ncg     rms          rms(c)
DAV:   1    -0.116121448693E+04   -0.51632E-03   -0.13396E-01 12352   0.420E-01    0.964E-02
RMM:   2    -0.116121481271E+04   -0.32578E-03   -0.34380E-03 12860   0.744E-02    0.661E-02
RMM:   3    -0.116121480880E+04    0.39162E-05   -0.14070E-04  7408   0.234E-02    0.404E-02
RMM:   4    -0.116121480163E+04    0.71732E-05   -0.49963E-05  6988   0.954E-03    0.205E-02
RMM:   5    -0.116121480420E+04   -0.25783E-05   -0.19146E-05  6766   0.613E-03    0.821E-03
RMM:   6    -0.116121480674E+04   -0.25398E-05   -0.78127E-06  6101   0.418E-03    0.658E-03
RMM:   7    -0.116121480876E+04   -0.20195E-05   -0.40913E-06  4778   0.321E-03    0.555E-03
RMM:   8    -0.116121481262E+04   -0.38537E-05   -0.53561E-06  4724   0.315E-03
   5 F= -.11612148E+04 E0= -.11612148E+04  d E =-.837603E-03  mag=     8.0000
       N       E                     dE             d eps       ncg     rms          rms(c)
DAV:   1    -0.116121478600E+04    0.22761E-04   -0.74091E-01 12776   0.986E-01    0.203E-01
RMM:   2    -0.116121657665E+04   -0.17906E-02   -0.17898E-02 13070   0.168E-01    0.126E-01
RMM:   3    -0.116121657870E+04   -0.20512E-05   -0.82042E-04 10685   0.527E-02    0.772E-02
RMM:   4    -0.116121654027E+04    0.38430E-04   -0.16619E-04  7417   0.186E-02    0.373E-02
RMM:   5    -0.116121654608E+04   -0.58129E-05   -0.70859E-05  7102   0.120E-02    0.122E-02
RMM:   6    -0.116121655042E+04   -0.43374E-05   -0.23116E-05  6921   0.798E-03    0.869E-03
RMM:   7    -0.116121655369E+04   -0.32696E-05   -0.15023E-05  6608   0.502E-03    0.755E-03
RMM:   8    -0.116121655701E+04   -0.33200E-05   -0.87437E-06  5993   0.483E-03
   6 F= -.11612166E+04 E0= -.11612166E+04  d E =-.174439E-02  mag=     8.0000
       N       E                     dE             d eps       ncg     rms          rms(c)
DAV:   1    -0.116121647004E+04    0.83643E-04   -0.66867E-01 12736   0.933E-01    0.183E-01
RMM:   2    -0.116121806870E+04   -0.15987E-02   -0.16205E-02 13036   0.158E-01    0.114E-01
RMM:   3    -0.116121806045E+04    0.82477E-05   -0.72992E-04 10313   0.495E-02    0.712E-02
RMM:   4    -0.116121802768E+04    0.32772E-04   -0.15080E-04  7356   0.175E-02    0.348E-02
RMM:   5    -0.116121803402E+04   -0.63370E-05   -0.63833E-05  7078   0.113E-02    0.111E-02
RMM:   6    -0.116121803834E+04   -0.43215E-05   -0.22239E-05  6884   0.756E-03    0.813E-03
RMM:   7    -0.116121804155E+04   -0.32078E-05   -0.14410E-05  6591   0.498E-03    0.717E-03
RMM:   8    -0.116121804491E+04   -0.33683E-05   -0.87994E-06  5943   0.468E-03
   7 F= -.11612180E+04 E0= -.11612180E+04  d E =-.148791E-02  mag=     8.0000
       N       E                     dE             d eps       ncg     rms          rms(c)
DAV:   1    -0.116121835411E+04   -0.31256E-03   -0.14234E-01 12400   0.430E-01    0.791E-02
RMM:   2    -0.116121868564E+04   -0.33153E-03   -0.35077E-03 12752   0.733E-02    0.505E-02
RMM:   3    -0.116121867797E+04    0.76655E-05   -0.13707E-04  7345   0.231E-02    0.324E-02
RMM:   4    -0.116121867409E+04    0.38834E-05   -0.47530E-05  6992   0.911E-03    0.161E-02
RMM:   5    -0.116121867778E+04   -0.36921E-05   -0.15920E-05  6582   0.570E-03    0.793E-03
RMM:   6    -0.116121867986E+04   -0.20845E-05   -0.75045E-06  5890   0.412E-03    0.620E-03
RMM:   7    -0.116121868170E+04   -0.18337E-05   -0.41884E-06  4624   0.320E-03    0.516E-03
RMM:   8    -0.116121868458E+04   -0.28768E-05   -0.45914E-06  4584   0.301E-03
   8 F= -.11612187E+04 E0= -.11612187E+04  d E =-.639661E-03  mag=     8.0000
       N       E                     dE             d eps       ncg     rms          rms(c)
DAV:   1    -0.116121848667E+04    0.19503E-03   -0.60566E-01 12640   0.884E-01    0.161E-01
RMM:   2    -0.116121989562E+04   -0.14090E-02   -0.14599E-02 13051   0.150E-01    0.103E-01
RMM:   3    -0.116121988019E+04    0.15427E-04   -0.64582E-04  9909   0.469E-02    0.654E-02
RMM:   4    -0.116121985181E+04    0.28384E-04   -0.13641E-04  7291   0.167E-02    0.325E-02
RMM:   5    -0.116121985802E+04   -0.62101E-05   -0.54698E-05  7033   0.106E-02    0.106E-02
RMM:   6    -0.116121986188E+04   -0.38596E-05   -0.19603E-05  6840   0.695E-03    0.786E-03
RMM:   7    -0.116121986475E+04   -0.28675E-05   -0.12133E-05  6425   0.472E-03    0.692E-03
RMM:   8    -0.116121986783E+04   -0.30860E-05   -0.77817E-06  5795   0.423E-03
   9 F= -.11612199E+04 E0= -.11612199E+04  d E =-.118326E-02  mag=     8.0000
       N       E                     dE             d eps       ncg     rms          rms(c)
DAV:   1    -0.116121996392E+04   -0.99169E-04   -0.31474E-01 12496   0.635E-01    0.115E-01
RMM:   2    -0.116122069636E+04   -0.73245E-03   -0.75925E-03 12901   0.107E-01    0.728E-02
RMM:   3    -0.116122068401E+04    0.12351E-04   -0.31571E-04  8313   0.337E-02    0.467E-02
RMM:   4    -0.116122067158E+04    0.12436E-04   -0.82115E-05  7101   0.126E-02    0.227E-02
RMM:   5    -0.116122067679E+04   -0.52087E-05   -0.30336E-05  6925   0.804E-03    0.963E-03
RMM:   6    -0.116122067963E+04   -0.28412E-05   -0.13138E-05  6613   0.548E-03    0.707E-03
RMM:   7    -0.116122068191E+04   -0.22781E-05   -0.76772E-06  5546   0.409E-03    0.601E-03
RMM:   8    -0.116122068485E+04   -0.29453E-05   -0.61337E-06  5157   0.363E-03
  10 F= -.11612207E+04 E0= -.11612207E+04  d E =-.817018E-03  mag=     8.0000
       N       E                     dE             d eps       ncg     rms          rms(c)
DAV:   1    -0.116122083745E+04   -0.15555E-03   -0.23128E-01 12352   0.543E-01    0.966E-02
RMM:   2    -0.116122137275E+04   -0.53530E-03   -0.55546E-03 12862   0.917E-02    0.613E-02
RMM:   3    -0.116122136359E+04    0.91589E-05   -0.22830E-04  7912   0.291E-02    0.394E-02
RMM:   4    -0.116122135555E+04    0.80423E-05   -0.62927E-05  7040   0.111E-02    0.192E-02
RMM:   5    -0.116122135994E+04   -0.43960E-05   -0.22579E-05  6770   0.700E-03    0.916E-03
RMM:   6    -0.116122136226E+04   -0.23156E-05   -0.10063E-05  6276   0.483E-03    0.659E-03
RMM:   7    -0.116122136418E+04   -0.19244E-05   -0.57795E-06  5083   0.366E-03    0.558E-03
RMM:   8    -0.116122136679E+04   -0.26098E-05   -0.48693E-06  4770   0.326E-03
  11 F= -.11612214E+04 E0= -.11612214E+04  d E =-.681942E-03  mag=     8.0000
       N       E                     dE             d eps       ncg     rms          rms(c)
DAV:   1    -0.116122097437E+04    0.38982E-03   -0.61261E-01 12592   0.883E-01    0.156E-01
RMM:   2    -0.116122238298E+04   -0.14086E-02   -0.14593E-02 12993   0.149E-01    0.985E-02
RMM:   3    -0.116122236483E+04    0.18154E-04   -0.64762E-04  9889   0.468E-02    0.630E-02
RMM:   4    -0.116122233710E+04    0.27729E-04   -0.14208E-04  7324   0.167E-02    0.302E-02
RMM:   5    -0.116122234406E+04   -0.69640E-05   -0.51617E-05  7030   0.105E-02    0.106E-02
RMM:   6    -0.116122234787E+04   -0.38091E-05   -0.19862E-05  6805   0.677E-03    0.792E-03
RMM:   7    -0.116122235065E+04   -0.27715E-05   -0.11960E-05  6332   0.479E-03    0.665E-03
RMM:   8    -0.116122235357E+04   -0.29237E-05   -0.79122E-06  5652   0.416E-03
  12 F= -.11612224E+04 E0= -.11612224E+04  d E =-.986776E-03  mag=     8.0000
