       N       E                     dE             d eps       ncg     rms          rms(c)
DAV:   1    -0.116026672223E+04   -0.11603E+04   -0.16372E-05  7560   0.974E-03    0.159E-02
RMM:   2    -0.116026672261E+04   -0.38373E-06   -0.10644E-05  6369   0.582E-03    0.257E-02
RMM:   3    -0.116026672318E+04   -0.57516E-06   -0.58732E-06  5005   0.312E-03    0.296E-03
RMM:   4    -0.116026672351E+04   -0.32401E-06   -0.29738E-06  4180   0.315E-03    0.645E-03
RMM:   5    -0.116026672372E+04   -0.20735E-06   -0.20140E-06  3155   0.237E-03    0.255E-03
RMM:   6    -0.116026672388E+04   -0.16572E-06   -0.10491E-06  2560   0.237E-03    0.164E-03
RMM:   7    -0.116026672407E+04   -0.18760E-06   -0.77766E-07  2348   0.205E-03    0.322E-03
RMM:   8    -0.116026672416E+04   -0.94544E-07   -0.41921E-07  1898   0.208E-03
   1 F= -.11602667E+04 E0= -.11602667E+04  d E =-.116027E+04  mag=    10.0000
       N       E                     dE             d eps       ncg     rms          rms(c)
DAV:   1    -0.116026728184E+04   -0.55777E-03   -0.44823E-01 12840   0.781E-01    0.207E-01
RMM:   2    -0.116026820688E+04   -0.92504E-03   -0.13174E-02 12296   0.151E-01    0.200E-01
RMM:   3    -0.116026813183E+04    0.75059E-04   -0.65645E-04 11225   0.485E-02    0.135E-01
RMM:   4    -0.116026804055E+04    0.91279E-04   -0.29875E-04  9828   0.201E-02    0.854E-02
RMM:   5    -0.116026801195E+04    0.28594E-04   -0.80553E-05  7436   0.131E-02    0.227E-02
RMM:   6    -0.116026801385E+04   -0.18944E-05   -0.23125E-05  7022   0.730E-03    0.145E-02
RMM:   7    -0.116026801457E+04   -0.72713E-06   -0.96759E-06  6652   0.486E-03    0.110E-02
RMM:   8    -0.116026801507E+04   -0.49423E-06   -0.49163E-06  6047   0.352E-03
   2 F= -.11602680E+04 E0= -.11602680E+04  d E =-.129090E-02  mag=    10.0000
       N       E                     dE             d eps       ncg     rms          rms(c)
DAV:   1    -0.116026862199E+04   -0.60742E-03   -0.92696E-02 12560   0.358E-01    0.963E-02
RMM:   2    -0.116026876653E+04   -0.14454E-03   -0.30071E-03 12248   0.707E-02    0.954E-02
RMM:   3    -0.116026873439E+04    0.32142E-04   -0.11917E-04  7355   0.230E-02    0.652E-02
RMM:   4    -0.116026870532E+04    0.29075E-04   -0.93548E-05  7141   0.115E-02    0.410E-02
RMM:   5    -0.116026869931E+04    0.60025E-05   -0.26673E-05  6894   0.756E-03    0.181E-02
RMM:   6    -0.116026869966E+04   -0.34143E-06   -0.95045E-06  6091   0.440E-03    0.120E-02
RMM:   7    -0.116026869989E+04   -0.23466E-06   -0.40343E-06  4975   0.341E-03    0.814E-03
RMM:   8    -0.116026870008E+04   -0.19383E-06   -0.23717E-06  4168   0.247E-03
   3 F= -.11602687E+04 E0= -.11602687E+04  d E =-.685016E-03  mag=    10.0000
