       N       E                     dE             d eps       ncg     rms          rms(c)
DAV:   1    -0.115910587262E+04   -0.11591E+04   -0.89343E-06  7656   0.784E-03    0.727E-03
RMM:   2    -0.115910587822E+04   -0.56033E-05   -0.11696E-05  5941   0.518E-03    0.101E-02
RMM:   3    -0.115910587991E+04   -0.16915E-05   -0.40903E-06  3999   0.258E-03    0.724E-03
RMM:   4    -0.115910587792E+04    0.19944E-05   -0.17813E-06  3714   0.264E-03    0.721E-03
RMM:   5    -0.115910587590E+04    0.20120E-05   -0.12111E-06  3320   0.227E-03    0.770E-03
RMM:   6    -0.115910587618E+04   -0.27612E-06   -0.39854E-07  1928   0.197E-03    0.737E-03
RMM:   7    -0.115910587653E+04   -0.34488E-06   -0.21953E-07  1730   0.185E-03    0.741E-03
RMM:   8    -0.115910587884E+04   -0.23178E-05   -0.66201E-07  2320   0.209E-03
   1 F= -.11591059E+04 E0= -.11591059E+04  d E =-.115911E+04  mag=     6.0000
       N       E                     dE             d eps       ncg     rms          rms(c)
DAV:   1    -0.115910581712E+04    0.59404E-04   -0.12469E-01 12288   0.407E-01    0.755E-02
RMM:   2    -0.115910609579E+04   -0.27867E-03   -0.30148E-03 12391   0.691E-02    0.525E-02
RMM:   3    -0.115910609640E+04   -0.61050E-06   -0.13768E-04  6950   0.272E-02    0.347E-02
RMM:   4    -0.115910609694E+04   -0.53953E-06   -0.45248E-05  6552   0.920E-03    0.239E-02
RMM:   5    -0.115910610239E+04   -0.54492E-05   -0.15945E-05  6239   0.615E-03    0.104E-02
RMM:   6    -0.115910610760E+04   -0.52102E-05   -0.84461E-06  5986   0.479E-03    0.864E-03
RMM:   7    -0.115910611106E+04   -0.34638E-05   -0.46682E-06  5099   0.335E-03    0.791E-03
RMM:   8    -0.115910611795E+04   -0.68891E-05   -0.65756E-06  4973   0.353E-03
   2 F= -.11591061E+04 E0= -.11591061E+04  d E =-.239109E-03  mag=     6.0000
       N       E                     dE             d eps       ncg     rms          rms(c)
DAV:   1    -0.115910616744E+04   -0.56375E-04   -0.19270E-02 12208   0.161E-01    0.327E-02
RMM:   2    -0.115910621124E+04   -0.43801E-04   -0.46464E-04  9587   0.283E-02    0.253E-02
RMM:   3    -0.115910621506E+04   -0.38221E-05   -0.31679E-05  6327   0.126E-02    0.161E-02
RMM:   4    -0.115910621941E+04   -0.43462E-05   -0.13910E-05  6111   0.517E-03    0.122E-02
RMM:   5    -0.115910622464E+04   -0.52374E-05   -0.68370E-06  5496   0.388E-03    0.764E-03
RMM:   6    -0.115910622846E+04   -0.38149E-05   -0.40819E-06  4225   0.281E-03    0.723E-03
RMM:   7    -0.115910623122E+04   -0.27621E-05   -0.22875E-06  3678   0.254E-03    0.707E-03
RMM:   8    -0.115910623515E+04   -0.39269E-05   -0.28943E-06  3709   0.261E-03
   3 F= -.11591062E+04 E0= -.11591062E+04  d E =-.117197E-03  mag=     6.0000
       N       E                     dE             d eps       ncg     rms          rms(c)
DAV:   1    -0.115910626686E+04   -0.35642E-04   -0.14699E-02 12208   0.141E-01    0.266E-02
RMM:   2    -0.115910630130E+04   -0.34439E-04   -0.33195E-04  7933   0.243E-02    0.187E-02
RMM:   3    -0.115910630642E+04   -0.51176E-05   -0.27728E-05  6305   0.113E-02    0.121E-02
RMM:   4    -0.115910631007E+04   -0.36451E-05   -0.10024E-05  6003   0.457E-03    0.104E-02
RMM:   5    -0.115910631460E+04   -0.45338E-05   -0.48828E-06  5050   0.359E-03    0.707E-03
RMM:   6    -0.115910631850E+04   -0.38997E-05   -0.39030E-06  4162   0.265E-03    0.681E-03
RMM:   7    -0.115910632025E+04   -0.17469E-05   -0.14048E-06  3012   0.227E-03    0.651E-03
RMM:   8    -0.115910632425E+04   -0.40084E-05   -0.32308E-06  3541   0.264E-03
   4 F= -.11591063E+04 E0= -.11591063E+04  d E =-.891056E-04  mag=     6.0000
       N       E                     dE             d eps       ncg     rms          rms(c)
DAV:   1    -0.115910630501E+04    0.15232E-04   -0.48340E-02 12160   0.254E-01    0.477E-02
RMM:   2    -0.115910641660E+04   -0.11159E-03   -0.11781E-03 12079   0.439E-02    0.308E-02
RMM:   3    -0.115910641916E+04   -0.25639E-05   -0.57089E-05  6602   0.183E-02    0.211E-02
RMM:   4    -0.115910642208E+04   -0.29153E-05   -0.21259E-05  6277   0.623E-03    0.146E-02
RMM:   5    -0.115910642641E+04   -0.43350E-05   -0.75512E-06  5852   0.422E-03    0.823E-03
RMM:   6    -0.115910643016E+04   -0.37475E-05   -0.48656E-06  5066   0.345E-03    0.720E-03
RMM:   7    -0.115910643294E+04   -0.27805E-05   -0.27132E-06  3772   0.261E-03    0.680E-03
RMM:   8    -0.115910643713E+04   -0.41887E-05   -0.34768E-06  3781   0.275E-03
   5 F= -.11591064E+04 E0= -.11591064E+04  d E =-.112877E-03  mag=     6.0000
       N       E                     dE             d eps       ncg     rms          rms(c)
DAV:   1    -0.115910637229E+04    0.60655E-04   -0.89710E-02 12272   0.346E-01    0.643E-02
RMM:   2    -0.115910658087E+04   -0.20858E-03   -0.21719E-03 12491   0.592E-02    0.413E-02
RMM:   3    -0.115910658323E+04   -0.23670E-05   -0.95203E-05  6957   0.226E-02    0.272E-02
RMM:   4    -0.115910658487E+04   -0.16398E-05   -0.32280E-05  6734   0.777E-03    0.175E-02
RMM:   5    -0.115910658973E+04   -0.48543E-05   -0.10785E-05  6405   0.534E-03    0.908E-03
RMM:   6    -0.115910659358E+04   -0.38484E-05   -0.65573E-06  5850   0.393E-03    0.758E-03
RMM:   7    -0.115910659626E+04   -0.26805E-05   -0.33674E-06  4439   0.303E-03    0.706E-03
RMM:   8    -0.115910660110E+04   -0.48434E-05   -0.49720E-06  4398   0.302E-03
   6 F= -.11591066E+04 E0= -.11591066E+04  d E =-.163969E-03  mag=     6.0000
       N       E                     dE             d eps       ncg     rms          rms(c)
DAV:   1    -0.115910641476E+04    0.18149E-03   -0.15892E-01 12448   0.460E-01    0.838E-02
RMM:   2    -0.115910678424E+04   -0.36948E-03   -0.38324E-03 12683   0.781E-02    0.525E-02
RMM:   3    -0.115910678736E+04   -0.31170E-05   -0.17453E-04  7565   0.296E-02    0.345E-02
RMM:   4    -0.115910678672E+04    0.64395E-06   -0.49092E-05  6955   0.995E-03    0.215E-02
RMM:   5    -0.115910679271E+04   -0.59967E-05   -0.17808E-05  6694   0.690E-03    0.961E-03
RMM:   6    -0.115910679734E+04   -0.46285E-05   -0.93949E-06  6446   0.492E-03    0.828E-03
RMM:   7    -0.115910680015E+04   -0.28070E-05   -0.50595E-06  5675   0.371E-03    0.734E-03
RMM:   8    -0.115910680728E+04   -0.71285E-05   -0.75375E-06  5401   0.385E-03
   7 F= -.11591068E+04 E0= -.11591068E+04  d E =-.206177E-03  mag=     6.0000
       N       E                     dE             d eps       ncg     rms          rms(c)
DAV:   1    -0.115910670842E+04    0.91724E-04   -0.97909E-02 12320   0.360E-01    0.660E-02
RMM:   2    -0.115910693682E+04   -0.22840E-03   -0.23454E-03 12406   0.611E-02    0.411E-02
RMM:   3    -0.115910694029E+04   -0.34725E-05   -0.10750E-04  7031   0.245E-02    0.273E-02
RMM:   4    -0.115910694283E+04   -0.25331E-05   -0.36171E-05  6832   0.795E-03    0.182E-02
RMM:   5    -0.115910694819E+04   -0.53658E-05   -0.11769E-05  6513   0.544E-03    0.938E-03
RMM:   6    -0.115910695272E+04   -0.45296E-05   -0.74857E-06  6018   0.425E-03    0.809E-03
RMM:   7    -0.115910695571E+04   -0.29839E-05   -0.41308E-06  4851   0.313E-03    0.743E-03
RMM:   8    -0.115910696143E+04   -0.57236E-05   -0.58266E-06  4701   0.326E-03
   8 F= -.11591070E+04 E0= -.11591070E+04  d E =-.154152E-03  mag=     6.0000
       N       E                     dE             d eps       ncg     rms          rms(c)
DAV:   1    -0.115910683616E+04    0.11955E-03   -0.11561E-01 12320   0.391E-01    0.713E-02
RMM:   2    -0.115910710752E+04   -0.27136E-03   -0.27839E-03 12564   0.665E-02    0.451E-02
RMM:   3    -0.115910711067E+04   -0.31520E-05   -0.12378E-04  7160   0.255E-02    0.296E-02
RMM:   4    -0.115910711233E+04   -0.16613E-05   -0.38603E-05  6869   0.857E-03    0.192E-02
RMM:   5    -0.115910711808E+04   -0.57478E-05   -0.13932E-05  6565   0.593E-03    0.965E-03
RMM:   6    -0.115910712278E+04   -0.47025E-05   -0.77587E-06  6157   0.437E-03    0.823E-03
RMM:   7    -0.115910712588E+04   -0.30934E-05   -0.42233E-06  5099   0.333E-03    0.759E-03
RMM:   8    -0.115910713203E+04   -0.61517E-05   -0.61435E-06  4838   0.328E-03
   9 F= -.11591071E+04 E0= -.11591071E+04  d E =-.170598E-03  mag=     6.0000
       N       E                     dE             d eps       ncg     rms          rms(c)
DAV:   1    -0.115910705983E+04    0.66045E-04   -0.86893E-02 12208   0.338E-01    0.610E-02
RMM:   2    -0.115910726147E+04   -0.20163E-03   -0.20679E-03 12301   0.574E-02    0.383E-02
RMM:   3    -0.115910726535E+04   -0.38881E-05   -0.97671E-05  6976   0.235E-02    0.256E-02
RMM:   4    -0.115910726828E+04   -0.29312E-05   -0.32816E-05  6756   0.755E-03    0.176E-02
RMM:   5    -0.115910727351E+04   -0.52234E-05   -0.11287E-05  6386   0.513E-03    0.951E-03
RMM:   6    -0.115910727816E+04   -0.46560E-05   -0.66950E-06  5842   0.410E-03    0.805E-03
RMM:   7    -0.115910728154E+04   -0.33752E-05   -0.39035E-06  4632   0.303E-03    0.748E-03
RMM:   8    -0.115910728662E+04   -0.50792E-05   -0.49699E-06  4446   0.299E-03
  10 F= -.11591073E+04 E0= -.11591073E+04  d E =-.154592E-03  mag=     6.0000
       N       E                     dE             d eps       ncg     rms          rms(c)
DAV:   1    -0.115910731317E+04   -0.31632E-04   -0.12084E-02 12536   0.127E-01    0.237E-02
RMM:   2    -0.115910734256E+04   -0.29391E-04   -0.27029E-04  7770   0.220E-02    0.164E-02
RMM:   3    -0.115910734762E+04   -0.50584E-05   -0.24238E-05  6378   0.105E-02    0.113E-02
RMM:   4    -0.115910735106E+04   -0.34420E-05   -0.87026E-06  5759   0.425E-03    0.101E-02
RMM:   5    -0.115910735553E+04   -0.44646E-05   -0.45151E-06  4621   0.354E-03    0.738E-03
RMM:   6    -0.115910735993E+04   -0.44045E-05   -0.48182E-06  4138   0.270E-03    0.710E-03
RMM:   7    -0.115910736210E+04   -0.21639E-05   -0.15619E-06  3204   0.236E-03    0.680E-03
RMM:   8    -0.115910736424E+04   -0.21426E-05   -0.12041E-06  2681   0.219E-03
  11 F= -.11591074E+04 E0= -.11591074E+04  d E =-.776195E-04  mag=     6.0000
       N       E                     dE             d eps       ncg     rms          rms(c)
DAV:   1    -0.115910733883E+04    0.23262E-04   -0.39521E-02 12160   0.227E-01    0.417E-02
RMM:   2    -0.115910743087E+04   -0.92032E-04   -0.93299E-04 11349   0.387E-02    0.269E-02
RMM:   3    -0.115910743455E+04   -0.36814E-05   -0.47009E-05  6459   0.161E-02    0.186E-02
RMM:   4    -0.115910743824E+04   -0.36947E-05   -0.17027E-05  6136   0.553E-03    0.138E-02
RMM:   5    -0.115910744288E+04   -0.46425E-05   -0.61921E-06  5648   0.385E-03    0.849E-03
RMM:   6    -0.115910744724E+04   -0.43613E-05   -0.42052E-06  4489   0.324E-03    0.748E-03
RMM:   7    -0.115910745065E+04   -0.34001E-05   -0.30307E-06  3585   0.258E-03    0.720E-03
RMM:   8    -0.115910745538E+04   -0.47382E-05   -0.39498E-06  3713   0.268E-03
  12 F= -.11591075E+04 E0= -.11591075E+04  d E =-.911454E-04  mag=     6.0000
       N       E                     dE             d eps       ncg     rms          rms(c)
DAV:   1    -0.115910734834E+04    0.10231E-03   -0.10043E-01 12136   0.362E-01    0.650E-02
RMM:   2    -0.115910758312E+04   -0.23478E-03   -0.23917E-03 12472   0.614E-02    0.412E-02
RMM:   3    -0.115910758563E+04   -0.25025E-05   -0.10451E-04  6995   0.232E-02    0.274E-02
RMM:   4    -0.115910758715E+04   -0.15294E-05   -0.33091E-05  6682   0.792E-03    0.179E-02
RMM:   5    -0.115910759209E+04   -0.49338E-05   -0.11760E-05  6265   0.540E-03    0.952E-03
RMM:   6    -0.115910759632E+04   -0.42321E-05   -0.65567E-06  5749   0.398E-03    0.782E-03
RMM:   7    -0.115910759921E+04   -0.28932E-05   -0.33786E-06  4367   0.305E-03    0.728E-03
RMM:   8    -0.115910760516E+04   -0.59416E-05   -0.58730E-06  4509   0.316E-03
  13 F= -.11591076E+04 E0= -.11591076E+04  d E =-.149772E-03  mag=     6.0000
       N       E                     dE             d eps       ncg     rms          rms(c)
DAV:   1    -0.115910732750E+04    0.27171E-03   -0.18779E-01 12320   0.494E-01    0.896E-02
RMM:   2    -0.115910776622E+04   -0.43871E-03   -0.44576E-03 12617   0.835E-02    0.561E-02
RMM:   3    -0.115910777102E+04   -0.48011E-05   -0.20744E-04  7826   0.314E-02    0.367E-02
RMM:   4    -0.115910776949E+04    0.15318E-05   -0.52844E-05  6965   0.104E-02    0.230E-02
RMM:   5    -0.115910777596E+04   -0.64717E-05   -0.20601E-05  6657   0.731E-03    0.103E-02
RMM:   6    -0.115910778129E+04   -0.53331E-05   -0.10636E-05  6369   0.518E-03    0.854E-03
RMM:   7    -0.115910778475E+04   -0.34635E-05   -0.58509E-06  5571   0.387E-03    0.785E-03
RMM:   8    -0.115910779295E+04   -0.81929E-05   -0.92152E-06  5430   0.398E-03
  14 F= -.11591078E+04 E0= -.11591078E+04  d E =-.187791E-03  mag=     6.0000
       N       E                     dE             d eps       ncg     rms          rms(c)
DAV:   1    -0.115910775513E+04    0.29623E-04   -0.52053E-02 12160   0.260E-01    0.473E-02
RMM:   2    -0.115910787842E+04   -0.12329E-03   -0.12255E-03 11811   0.442E-02    0.298E-02
RMM:   3    -0.115910788287E+04   -0.44474E-05   -0.61238E-05  6789   0.185E-02    0.204E-02
RMM:   4    -0.115910788701E+04   -0.41350E-05   -0.21999E-05  6479   0.613E-03    0.150E-02
RMM:   5    -0.115910789219E+04   -0.51857E-05   -0.89371E-06  5875   0.424E-03    0.925E-03
RMM:   6    -0.115910789705E+04   -0.48599E-05   -0.54111E-06  5155   0.369E-03    0.796E-03
RMM:   7    -0.115910790087E+04   -0.38174E-05   -0.36304E-06  4068   0.279E-03    0.754E-03
RMM:   8    -0.115910790696E+04   -0.60951E-05   -0.57996E-06  4427   0.308E-03
  15 F= -.11591079E+04 E0= -.11591079E+04  d E =-.114017E-03  mag=     6.0000
       N       E                     dE             d eps       ncg     rms          rms(c)
DAV:   1    -0.115910781629E+04    0.84583E-04   -0.81856E-02 12128   0.327E-01    0.595E-02
RMM:   2    -0.115910800987E+04   -0.19358E-03   -0.19499E-03 12313   0.558E-02    0.374E-02
RMM:   3    -0.115910801416E+04   -0.42919E-05   -0.90234E-05  6947   0.222E-02    0.250E-02
RMM:   4    -0.115910801710E+04   -0.29398E-05   -0.29302E-05  6665   0.730E-03    0.174E-02
RMM:   5    -0.115910802216E+04   -0.50606E-05   -0.10763E-05  6233   0.506E-03    0.984E-03
RMM:   6    -0.115910802692E+04   -0.47612E-05   -0.65372E-06  5682   0.393E-03    0.808E-03
RMM:   7    -0.115910803013E+04   -0.32068E-05   -0.35132E-06  4282   0.297E-03    0.754E-03
RMM:   8    -0.115910803671E+04   -0.65790E-05   -0.63813E-06  4560   0.326E-03
  16 F= -.11591080E+04 E0= -.11591080E+04  d E =-.129743E-03  mag=     6.0000
       N       E                     dE             d eps       ncg     rms          rms(c)
DAV:   1    -0.115910790491E+04    0.12522E-03   -0.98534E-02 12192   0.358E-01    0.652E-02
RMM:   2    -0.115910813754E+04   -0.23264E-03   -0.23567E-03 12506   0.610E-02    0.413E-02
RMM:   3    -0.115910814089E+04   -0.33505E-05   -0.10353E-04  7039   0.231E-02    0.273E-02
RMM:   4    -0.115910814311E+04   -0.22149E-05   -0.33267E-05  6719   0.782E-03    0.182E-02
RMM:   5    -0.115910814869E+04   -0.55785E-05   -0.12032E-05  6288   0.543E-03    0.998E-03
RMM:   6    -0.115910815365E+04   -0.49658E-05   -0.71297E-06  5814   0.407E-03    0.831E-03
RMM:   7    -0.115910815697E+04   -0.33133E-05   -0.37152E-06  4544   0.313E-03    0.773E-03
RMM:   8    -0.115910816417E+04   -0.72089E-05   -0.70356E-06  4709   0.336E-03
  17 F= -.11591082E+04 E0= -.11591082E+04  d E =-.127468E-03  mag=     6.0000
       N       E                     dE             d eps       ncg     rms          rms(c)
DAV:   1    -0.115910795207E+04    0.20489E-03   -0.13463E-01 12256   0.418E-01    0.749E-02
RMM:   2    -0.115910826650E+04   -0.31443E-03   -0.32102E-03 12572   0.710E-02    0.479E-02
RMM:   3    -0.115910826971E+04   -0.32030E-05   -0.14235E-04  7294   0.267E-02    0.315E-02
RMM:   4    -0.115910827109E+04   -0.13851E-05   -0.42956E-05  6859   0.903E-03    0.206E-02
RMM:   5    -0.115910827737E+04   -0.62790E-05   -0.14600E-05  6524   0.625E-03    0.103E-02
RMM:   6    -0.115910828282E+04   -0.54440E-05   -0.89381E-06  6104   0.459E-03    0.859E-03
RMM:   7    -0.115910828671E+04   -0.38959E-05   -0.52218E-06  5143   0.350E-03    0.811E-03
RMM:   8    -0.115910829423E+04   -0.75208E-05   -0.74610E-06  4922   0.346E-03
  18 F= -.11591083E+04 E0= -.11591083E+04  d E =-.130058E-03  mag=     6.0000
       N       E                     dE             d eps       ncg     rms          rms(c)
DAV:   1    -0.115910793231E+04    0.35441E-03   -0.19972E-01 12304   0.510E-01    0.913E-02
RMM:   2    -0.115910839616E+04   -0.46386E-03   -0.47373E-03 12593   0.861E-02    0.576E-02
RMM:   3    -0.115910840184E+04   -0.56802E-05   -0.22477E-04  7966   0.331E-02    0.377E-02
RMM:   4    -0.115910840092E+04    0.91657E-06   -0.58284E-05  7014   0.108E-02    0.239E-02
RMM:   5    -0.115910840845E+04   -0.75258E-05   -0.21398E-05  6713   0.763E-03    0.115E-02
RMM:   6    -0.115910841466E+04   -0.62096E-05   -0.12675E-05  6472   0.548E-03    0.932E-03
RMM:   7    -0.115910841887E+04   -0.42076E-05   -0.66707E-06  5915   0.407E-03    0.863E-03
RMM:   8    -0.115910842839E+04   -0.95263E-05   -0.98447E-06  5588   0.420E-03
  19 F= -.11591084E+04 E0= -.11591084E+04  d E =-.134162E-03  mag=     6.0000
