       N       E                     dE             d eps       ncg     rms          rms(c)
DAV:   1    -0.115903877368E+04   -0.11590E+04   -0.94135E-06  7608   0.121E-02    0.178E-02
RMM:   2    -0.115903877522E+04   -0.15329E-05   -0.12774E-05  6222   0.501E-03    0.293E-02
RMM:   3    -0.115903877607E+04   -0.85490E-06   -0.36633E-06  5001   0.311E-03    0.577E-03
RMM:   4    -0.115903877743E+04   -0.13539E-05   -0.20560E-06  3822   0.234E-03    0.678E-03
RMM:   5    -0.115903877860E+04   -0.11718E-05   -0.14776E-06  3413   0.232E-03    0.601E-03
RMM:   6    -0.115903877967E+04   -0.10738E-05   -0.90799E-07  2865   0.203E-03    0.487E-03
RMM:   7    -0.115903878198E+04   -0.23047E-05   -0.23397E-06  4055   0.249E-03    0.397E-03
RMM:   8    -0.115903878409E+04   -0.21165E-05   -0.29495E-06  4022   0.247E-03
   1 F= -.11590388E+04 E0= -.11590388E+04  d E =-.115904E+04  mag=    12.0000
       N       E                     dE             d eps       ncg     rms          rms(c)
DAV:   1    -0.115903890578E+04   -0.12380E-03   -0.93931E-01 12848   0.111E+00    0.399E-01
RMM:   2    -0.115904170499E+04   -0.27992E-02   -0.27533E-02 12291   0.216E-01    0.315E-01
RMM:   3    -0.115904178939E+04   -0.84402E-04   -0.12799E-03 12354   0.597E-02    0.182E-01
RMM:   4    -0.115904162026E+04    0.16914E-03   -0.57644E-04 10601   0.267E-02    0.903E-02
RMM:   5    -0.115904160465E+04    0.15604E-04   -0.11893E-04  8256   0.160E-02    0.471E-02
RMM:   6    -0.115904161226E+04   -0.76092E-05   -0.27692E-05  7136   0.800E-03    0.208E-02
RMM:   7    -0.115904161945E+04   -0.71885E-05   -0.14426E-05  6857   0.557E-03    0.162E-02
RMM:   8    -0.115904162777E+04   -0.83229E-05   -0.10052E-05  6713   0.456E-03
   2 F= -.11590416E+04 E0= -.11590416E+04  d E =-.284368E-02  mag=    12.0000
       N       E                     dE             d eps       ncg     rms          rms(c)
DAV:   1    -0.115904287112E+04   -0.12517E-02   -0.21050E-01 12696   0.535E-01    0.146E-01
RMM:   2    -0.115904318608E+04   -0.31496E-03   -0.66670E-03 12257   0.106E-01    0.147E-01
RMM:   3    -0.115904313813E+04    0.47950E-04   -0.26271E-04  8906   0.292E-02    0.974E-02
RMM:   4    -0.115904308477E+04    0.53362E-04   -0.13688E-04  7371   0.149E-02    0.556E-02
RMM:   5    -0.115904307268E+04    0.12089E-04   -0.73702E-05  7209   0.114E-02    0.666E-02
RMM:   6    -0.115904307543E+04   -0.27538E-05   -0.27926E-05  6850   0.789E-03    0.170E-02
RMM:   7    -0.115904307777E+04   -0.23409E-05   -0.10621E-05  6147   0.442E-03    0.169E-02
RMM:   8    -0.115904308011E+04   -0.23394E-05   -0.60803E-06  5594   0.389E-03
   3 F= -.11590431E+04 E0= -.11590431E+04  d E =-.145234E-02  mag=    12.0000
       N       E                     dE             d eps       ncg     rms          rms(c)
DAV:   1    -0.115904362387E+04   -0.54610E-03   -0.40211E-01 12848   0.741E-01    0.157E-01
RMM:   2    -0.115904459519E+04   -0.97132E-03   -0.10380E-02 12283   0.129E-01    0.106E-01
RMM:   3    -0.115904460532E+04   -0.10126E-04   -0.47447E-04  9696   0.406E-02    0.684E-02
RMM:   4    -0.115904459448E+04    0.10837E-04   -0.13890E-04  7304   0.144E-02    0.421E-02
RMM:   5    -0.115904460544E+04   -0.10954E-04   -0.40808E-05  6987   0.903E-03    0.380E-02
RMM:   6    -0.115904461360E+04   -0.81603E-05   -0.18959E-05  6812   0.644E-03    0.147E-02
RMM:   7    -0.115904462023E+04   -0.66359E-05   -0.10541E-05  6491   0.452E-03    0.144E-02
RMM:   8    -0.115904462780E+04   -0.75684E-05   -0.86736E-06  6423   0.428E-03
   4 F= -.11590446E+04 E0= -.11590446E+04  d E =-.154769E-02  mag=    12.0000
       N       E                     dE             d eps       ncg     rms          rms(c)
DAV:   1    -0.115904508049E+04   -0.46026E-03   -0.36263E-01 12864   0.698E-01    0.139E-01
RMM:   2    -0.115904594669E+04   -0.86620E-03   -0.90874E-03 12275   0.118E-01    0.916E-02
RMM:   3    -0.115904595082E+04   -0.41368E-05   -0.39830E-04  9055   0.369E-02    0.596E-02
RMM:   4    -0.115904594601E+04    0.48145E-05   -0.12094E-04  7226   0.133E-02    0.354E-02
RMM:   5    -0.115904595897E+04   -0.12963E-04   -0.38454E-05  6975   0.865E-03    0.323E-02
RMM:   6    -0.115904596629E+04   -0.73194E-05   -0.17494E-05  6780   0.603E-03    0.138E-02
RMM:   7    -0.115904597296E+04   -0.66667E-05   -0.10272E-05  6429   0.443E-03    0.135E-02
RMM:   8    -0.115904598228E+04   -0.93236E-05   -0.10029E-05  6507   0.440E-03
   5 F= -.11590460E+04 E0= -.11590460E+04  d E =-.135448E-02  mag=    12.0000
       N       E                     dE             d eps       ncg     rms          rms(c)
DAV:   1    -0.115904636098E+04   -0.38802E-03   -0.34995E-01 12864   0.684E-01    0.129E-01
RMM:   2    -0.115904719242E+04   -0.83144E-03   -0.87366E-03 12264   0.116E-01    0.842E-02
RMM:   3    -0.115904719748E+04   -0.50550E-05   -0.38453E-04  8996   0.365E-02    0.557E-02
RMM:   4    -0.115904719608E+04    0.13941E-05   -0.11360E-04  7192   0.131E-02    0.353E-02
RMM:   5    -0.115904720741E+04   -0.11328E-04   -0.35066E-05  6946   0.847E-03    0.331E-02
RMM:   6    -0.115904721527E+04   -0.78608E-05   -0.17678E-05  6746   0.596E-03    0.131E-02
RMM:   7    -0.115904722208E+04   -0.68113E-05   -0.10144E-05  6299   0.449E-03    0.136E-02
RMM:   8    -0.115904723001E+04   -0.79237E-05   -0.90025E-06  6339   0.417E-03
   6 F= -.11590472E+04 E0= -.11590472E+04  d E =-.124773E-02  mag=    12.0000
       N       E                     dE             d eps       ncg     rms          rms(c)
DAV:   1    -0.115904738830E+04   -0.16622E-03   -0.47697E-01 12800   0.797E-01    0.145E-01
RMM:   2    -0.115904851401E+04   -0.11257E-02   -0.11871E-02 12259   0.135E-01    0.931E-02
RMM:   3    -0.115904851949E+04   -0.54783E-05   -0.53502E-04  9824   0.417E-02    0.624E-02
RMM:   4    -0.115904851713E+04    0.23586E-05   -0.15242E-04  7385   0.146E-02    0.342E-02
RMM:   5    -0.115904853375E+04   -0.16617E-04   -0.41578E-05  6991   0.881E-03    0.288E-02
RMM:   6    -0.115904854129E+04   -0.75374E-05   -0.18123E-05  6779   0.632E-03    0.148E-02
RMM:   7    -0.115904855064E+04   -0.93531E-05   -0.12541E-05  6597   0.463E-03    0.139E-02
RMM:   8    -0.115904856166E+04   -0.11023E-04   -0.11180E-05  6592   0.483E-03
   7 F= -.11590486E+04 E0= -.11590486E+04  d E =-.133165E-02  mag=    12.0000
       N       E                     dE             d eps       ncg     rms          rms(c)
DAV:   1    -0.115904855649E+04   -0.58540E-05   -0.56818E-01 12768   0.867E-01    0.156E-01
RMM:   2    -0.115904989458E+04   -0.13381E-02   -0.14040E-02 12264   0.146E-01    0.100E-01
RMM:   3    -0.115904990324E+04   -0.86637E-05   -0.64555E-04 10383   0.456E-02    0.672E-02
RMM:   4    -0.115904989971E+04    0.35304E-05   -0.17533E-04  7563   0.155E-02    0.391E-02
RMM:   5    -0.115904991809E+04   -0.18381E-04   -0.47298E-05  7023   0.946E-03    0.321E-02
RMM:   6    -0.115904992746E+04   -0.93727E-05   -0.20628E-05  6849   0.670E-03    0.161E-02
RMM:   7    -0.115904993802E+04   -0.10558E-04   -0.13733E-05  6677   0.495E-03    0.155E-02
RMM:   8    -0.115904994902E+04   -0.11000E-04   -0.11178E-05  6608   0.488E-03
   8 F= -.11590499E+04 E0= -.11590499E+04  d E =-.138736E-02  mag=    12.0000
       N       E                     dE             d eps       ncg     rms          rms(c)
DAV:   1    -0.115904987446E+04    0.63564E-04   -0.54654E-01 12768   0.848E-01    0.152E-01
RMM:   2    -0.115905115799E+04   -0.12835E-02   -0.13483E-02 12264   0.142E-01    0.970E-02
RMM:   3    -0.115905116499E+04   -0.69969E-05   -0.61414E-04 10043   0.442E-02    0.647E-02
RMM:   4    -0.115905116221E+04    0.27774E-05   -0.17130E-04  7525   0.152E-02    0.368E-02
RMM:   5    -0.115905118007E+04   -0.17861E-04   -0.45256E-05  6999   0.926E-03    0.282E-02
RMM:   6    -0.115905118884E+04   -0.87688E-05   -0.19695E-05  6822   0.646E-03    0.154E-02
RMM:   7    -0.115905119943E+04   -0.10585E-04   -0.13545E-05  6616   0.492E-03    0.144E-02
RMM:   8    -0.115905121162E+04   -0.12196E-04   -0.12529E-05  6637   0.498E-03
   9 F= -.11590512E+04 E0= -.11590512E+04  d E =-.126260E-02  mag=    12.0000
       N       E                     dE             d eps       ncg     rms          rms(c)
DAV:   1    -0.115905091710E+04    0.28232E-03   -0.66449E-01 12768   0.933E-01    0.164E-01
RMM:   2    -0.115905246473E+04   -0.15476E-02   -0.16287E-02 12268   0.156E-01    0.105E-01
RMM:   3    -0.115905247357E+04   -0.88376E-05   -0.75706E-04 10731   0.490E-02    0.700E-02
RMM:   4    -0.115905246794E+04    0.56267E-05   -0.21021E-04  7850   0.165E-02    0.393E-02
RMM:   5    -0.115905248670E+04   -0.18760E-04   -0.50591E-05  7050   0.995E-03    0.296E-02
RMM:   6    -0.115905249628E+04   -0.95807E-05   -0.21821E-05  6845   0.677E-03    0.166E-02
RMM:   7    -0.115905250774E+04   -0.11454E-04   -0.14677E-05  6711   0.525E-03    0.154E-02
RMM:   8    -0.115905252051E+04   -0.12770E-04   -0.13217E-05  6694   0.515E-03
  10 F= -.11590525E+04 E0= -.11590525E+04  d E =-.130888E-02  mag=    12.0000
       N       E                     dE             d eps       ncg     rms          rms(c)
DAV:   1    -0.115905172884E+04    0.77890E-03   -0.89374E-01 12744   0.108E+00    0.188E-01
RMM:   2    -0.115905381128E+04   -0.20824E-02   -0.21857E-02 12271   0.182E-01    0.120E-01
RMM:   3    -0.115905382545E+04   -0.14169E-04   -0.10324E-03 11381   0.569E-02    0.799E-02
RMM:   4    -0.115905381765E+04    0.77975E-05   -0.29691E-04  8592   0.188E-02    0.445E-02
RMM:   5    -0.115905383966E+04   -0.22006E-04   -0.63514E-05  7157   0.115E-02    0.338E-02
RMM:   6    -0.115905385167E+04   -0.12010E-04   -0.27135E-05  6898   0.739E-03    0.185E-02
RMM:   7    -0.115905386580E+04   -0.14136E-04   -0.17662E-05  6789   0.603E-03    0.167E-02
RMM:   8    -0.115905388182E+04   -0.16016E-04   -0.16818E-05  6764   0.562E-03
  11 F= -.11590539E+04 E0= -.11590539E+04  d E =-.136131E-02  mag=    12.0000
       N       E                     dE             d eps       ncg     rms          rms(c)
DAV:   1    -0.115905389376E+04   -0.27954E-04   -0.31047E-01 12856   0.636E-01    0.112E-01
RMM:   2    -0.115905462772E+04   -0.73396E-03   -0.76541E-03 12219   0.108E-01    0.719E-02
RMM:   3    -0.115905463233E+04   -0.46086E-05   -0.33858E-04  8706   0.334E-02    0.482E-02
RMM:   4    -0.115905463342E+04   -0.10948E-05   -0.99617E-05  7133   0.122E-02    0.314E-02
RMM:   5    -0.115905464423E+04   -0.10806E-04   -0.31472E-05  6899   0.796E-03    0.268E-02
RMM:   6    -0.115905465142E+04   -0.71917E-05   -0.16079E-05  6700   0.557E-03    0.123E-02
RMM:   7    -0.115905465801E+04   -0.65951E-05   -0.94893E-06  6172   0.436E-03    0.123E-02
RMM:   8    -0.115905466660E+04   -0.85869E-05   -0.98051E-06  6268   0.418E-03
  12 F= -.11590547E+04 E0= -.11590547E+04  d E =-.784783E-03  mag=    12.0000
       N       E                     dE             d eps       ncg     rms          rms(c)
DAV:   1    -0.115905463259E+04    0.25420E-04   -0.31989E-01 12672   0.644E-01    0.111E-01
RMM:   2    -0.115905537914E+04   -0.74655E-03   -0.78127E-03 12192   0.109E-01    0.711E-02
RMM:   3    -0.115905538133E+04   -0.21895E-05   -0.34108E-04  8604   0.343E-02    0.477E-02
RMM:   4    -0.115905537909E+04    0.22466E-05   -0.99947E-05  7124   0.124E-02    0.292E-02
RMM:   5    -0.115905538790E+04   -0.88128E-05   -0.31056E-05  6871   0.805E-03    0.277E-02
RMM:   6    -0.115905539344E+04   -0.55380E-05   -0.15455E-05  6643   0.534E-03    0.114E-02
RMM:   7    -0.115905539857E+04   -0.51280E-05   -0.86677E-06  6051   0.430E-03    0.118E-02
RMM:   8    -0.115905540433E+04   -0.57642E-05   -0.75720E-06  5923   0.369E-03
  13 F= -.11590554E+04 E0= -.11590554E+04  d E =-.737730E-03  mag=    12.0000
       N       E                     dE             d eps       ncg     rms          rms(c)
DAV:   1    -0.115905539379E+04    0.47796E-05   -0.25871E-01 12688   0.579E-01    0.989E-02
RMM:   2    -0.115905599720E+04   -0.60342E-03   -0.63166E-03 12188   0.977E-02    0.631E-02
RMM:   3    -0.115905599834E+04   -0.11402E-05   -0.26713E-04  8042   0.307E-02    0.425E-02
RMM:   4    -0.115905599772E+04    0.62837E-06   -0.84152E-05  7058   0.115E-02    0.272E-02
RMM:   5    -0.115905600422E+04   -0.65015E-05   -0.25990E-05  6806   0.768E-03    0.280E-02
RMM:   6    -0.115905600937E+04   -0.51497E-05   -0.14649E-05  6583   0.498E-03    0.105E-02
RMM:   7    -0.115905601358E+04   -0.42158E-05   -0.74676E-06  5769   0.418E-03    0.114E-02
RMM:   8    -0.115905601837E+04   -0.47862E-05   -0.67212E-06  5591   0.342E-03
  14 F= -.11590560E+04 E0= -.11590560E+04  d E =-.614039E-03  mag=    12.0000
       N       E                     dE             d eps       ncg     rms          rms(c)
DAV:   1    -0.115905611939E+04   -0.10581E-03   -0.14794E-01 12448   0.437E-01    0.753E-02
RMM:   2    -0.115905646183E+04   -0.34244E-03   -0.36089E-03 12149   0.740E-02    0.498E-02
RMM:   3    -0.115905646068E+04    0.11512E-05   -0.14687E-04  7295   0.236E-02    0.325E-02
RMM:   4    -0.115905646075E+04   -0.70169E-07   -0.51465E-05  6941   0.900E-03    0.204E-02
RMM:   5    -0.115905646462E+04   -0.38701E-05   -0.16643E-05  6439   0.605E-03    0.201E-02
RMM:   6    -0.115905646730E+04   -0.26840E-05   -0.86590E-06  5914   0.385E-03    0.825E-03
RMM:   7    -0.115905646963E+04   -0.23324E-05   -0.46123E-06  5301   0.348E-03    0.793E-03
RMM:   8    -0.115905647264E+04   -0.30073E-05   -0.44662E-06  5031   0.290E-03
  15 F= -.11590565E+04 E0= -.11590565E+04  d E =-.454271E-03  mag=    12.0000
       N       E                     dE             d eps       ncg     rms          rms(c)
DAV:   1    -0.115905662390E+04   -0.15427E-03   -0.66664E-02 12352   0.294E-01    0.525E-02
RMM:   2    -0.115905677991E+04   -0.15601E-03   -0.16485E-03 12041   0.505E-02    0.343E-02
RMM:   3    -0.115905677930E+04    0.60999E-06   -0.65536E-05  6937   0.162E-02    0.224E-02
RMM:   4    -0.115905677968E+04   -0.38266E-06   -0.25494E-05  6672   0.639E-03    0.136E-02
RMM:   5    -0.115905678183E+04   -0.21482E-05   -0.78868E-06  5781   0.423E-03    0.136E-02
RMM:   6    -0.115905678309E+04   -0.12606E-05   -0.39160E-06  4534   0.277E-03    0.571E-03
RMM:   7    -0.115905678429E+04   -0.11941E-05   -0.21805E-06  4156   0.271E-03    0.484E-03
RMM:   8    -0.115905678589E+04   -0.16039E-05   -0.20456E-06  4011   0.237E-03
  16 F= -.11590568E+04 E0= -.11590568E+04  d E =-.313251E-03  mag=    12.0000
       N       E                     dE             d eps       ncg     rms          rms(c)
DAV:   1    -0.115905676998E+04    0.14307E-04   -0.21224E-01 12480   0.523E-01    0.901E-02
RMM:   2    -0.115905726440E+04   -0.49442E-03   -0.51484E-03 12153   0.884E-02    0.566E-02
RMM:   3    -0.115905726572E+04   -0.13198E-05   -0.21898E-04  7760   0.286E-02    0.376E-02
RMM:   4    -0.115905726355E+04    0.21730E-05   -0.67079E-05  6981   0.104E-02    0.218E-02
RMM:   5    -0.115905726918E+04   -0.56337E-05   -0.20784E-05  6640   0.670E-03    0.178E-02
RMM:   6    -0.115905727210E+04   -0.29157E-05   -0.98503E-06  6114   0.420E-03    0.870E-03
RMM:   7    -0.115905727481E+04   -0.27108E-05   -0.54863E-06  5484   0.364E-03    0.793E-03
RMM:   8    -0.115905727848E+04   -0.36727E-05   -0.52520E-06  5384   0.311E-03
  17 F= -.11590573E+04 E0= -.11590573E+04  d E =-.492589E-03  mag=    12.0000
       N       E                     dE             d eps       ncg     rms          rms(c)
DAV:   1    -0.115905699236E+04    0.28245E-03   -0.35411E-01 12576   0.676E-01    0.117E-01
RMM:   2    -0.115905781694E+04   -0.82458E-03   -0.85681E-03 12192   0.114E-01    0.734E-02
RMM:   3    -0.115905782201E+04   -0.50719E-05   -0.39085E-04  8968   0.367E-02    0.489E-02
RMM:   4    -0.115905781592E+04    0.60871E-05   -0.10256E-04  7126   0.124E-02    0.279E-02
RMM:   5    -0.115905782496E+04   -0.90362E-05   -0.31632E-05  6877   0.781E-03    0.250E-02
RMM:   6    -0.115905782949E+04   -0.45288E-05   -0.14225E-05  6601   0.549E-03    0.111E-02
RMM:   7    -0.115905783402E+04   -0.45304E-05   -0.85914E-06  6083   0.399E-03    0.109E-02
RMM:   8    -0.115905783875E+04   -0.47285E-05   -0.63057E-06  5808   0.370E-03
  18 F= -.11590578E+04 E0= -.11590578E+04  d E =-.560268E-03  mag=    12.0000
