       N       E                     dE             d eps       ncg     rms          rms(c)
DAV:   1    -0.116186174954E+04   -0.11619E+04   -0.83912E-06  7512   0.804E-03    0.161E-02
RMM:   2    -0.116186174920E+04    0.33915E-06   -0.59505E-06  5476   0.363E-03    0.248E-02
RMM:   3    -0.116186174931E+04   -0.10910E-06   -0.18323E-06  3976   0.246E-03    0.204E-03
RMM:   4    -0.116186174935E+04   -0.39669E-07   -0.62505E-07  2442   0.207E-03    0.130E-03
RMM:   5    -0.116186174937E+04   -0.28071E-07   -0.37542E-07  2015   0.195E-03    0.206E-03
RMM:   6    -0.116186174937E+04    0.21828E-09   -0.75297E-08  1408   0.184E-03    0.112E-03
RMM:   7    -0.116186174937E+04    0.87311E-10   -0.27725E-08  1322   0.183E-03    0.360E-04
RMM:   8    -0.116186174937E+04    0.16444E-08   -0.96238E-09  1024   0.182E-03
   1 F= -.11618617E+04 E0= -.11618603E+04  d E =-.116186E+04  mag=     7.9806
       N       E                     dE             d eps       ncg     rms          rms(c)
DAV:   1    -0.116186182551E+04   -0.76137E-04   -0.12833E-01 12416   0.411E-01    0.125E-01
RMM:   2    -0.116186198410E+04   -0.15859E-03   -0.43368E-03 12202   0.835E-02    0.123E-01
RMM:   3    -0.116186193165E+04    0.52451E-04   -0.14992E-04  7901   0.215E-02    0.804E-02
RMM:   4    -0.116186187637E+04    0.55279E-04   -0.14311E-04  7376   0.144E-02    0.488E-02
RMM:   5    -0.116186186527E+04    0.11100E-04   -0.45444E-05  7012   0.949E-03    0.463E-02
RMM:   6    -0.116186186534E+04   -0.63694E-07   -0.16983E-05  6268   0.562E-03    0.146E-02
RMM:   7    -0.116186186566E+04   -0.32794E-06   -0.62545E-06  5259   0.388E-03    0.140E-02
RMM:   8    -0.116186186602E+04   -0.35501E-06   -0.36418E-06  4854   0.292E-03
   2 F= -.11618619E+04 E0= -.11618604E+04  d E =-.116647E-03  mag=     7.9799
       N       E                     dE             d eps       ncg     rms          rms(c)
DAV:   1    -0.116186225041E+04   -0.38475E-03   -0.30231E-02 12320   0.198E-01    0.646E-02
RMM:   2    -0.116186224845E+04    0.19613E-05   -0.11324E-03 11731   0.423E-02    0.669E-02
RMM:   3    -0.116186222837E+04    0.20082E-04   -0.40710E-05  6660   0.108E-02    0.443E-02
RMM:   4    -0.116186220831E+04    0.20063E-04   -0.50366E-05  6754   0.823E-03    0.271E-02
RMM:   5    -0.116186220396E+04    0.43463E-05   -0.13033E-05  5693   0.525E-03    0.213E-02
RMM:   6    -0.116186220386E+04    0.10201E-06   -0.46137E-06  4573   0.304E-03    0.947E-03
RMM:   7    -0.116186220391E+04   -0.50146E-07   -0.16426E-06  3635   0.248E-03    0.692E-03
RMM:   8    -0.116186220393E+04   -0.26470E-07   -0.48158E-07  2260   0.196E-03
   3 F= -.11618622E+04 E0= -.11618607E+04  d E =-.337915E-03  mag=     7.9803
       N       E                     dE             d eps       ncg     rms          rms(c)
DAV:   1    -0.116186228000E+04   -0.76096E-04   -0.24823E-02 12160   0.184E-01    0.396E-02
RMM:   2    -0.116186232950E+04   -0.49500E-04   -0.65261E-04 11633   0.319E-02    0.284E-02
RMM:   3    -0.116186232561E+04    0.38957E-05   -0.25586E-05  6319   0.979E-03    0.179E-02
RMM:   4    -0.116186232283E+04    0.27764E-05   -0.12829E-05  6038   0.435E-03    0.103E-02
RMM:   5    -0.116186232253E+04    0.29748E-06   -0.24197E-06  4419   0.280E-03    0.305E-03
RMM:   6    -0.116186232258E+04   -0.46159E-07   -0.62510E-07  2140   0.199E-03    0.171E-03
RMM:   7    -0.116186232260E+04   -0.24316E-07   -0.28649E-07  1983   0.205E-03    0.879E-04
RMM:   8    -0.116186232261E+04   -0.33469E-08   -0.34751E-08  1203   0.184E-03
   4 F= -.11618623E+04 E0= -.11618608E+04  d E =-.118673E-03  mag=     7.9802
       N       E                     dE             d eps       ncg     rms          rms(c)
DAV:   1    -0.116186236788E+04   -0.45276E-04   -0.63213E-03 12160   0.926E-02    0.214E-02
RMM:   2    -0.116186237826E+04   -0.10378E-04   -0.15720E-04  6777   0.167E-02    0.190E-02
RMM:   3    -0.116186237917E+04   -0.91094E-06   -0.14946E-05  6178   0.651E-03    0.113E-02
RMM:   4    -0.116186237846E+04    0.70997E-06   -0.37690E-06  5086   0.301E-03    0.101E-02
RMM:   5    -0.116186237813E+04    0.33277E-06   -0.18037E-06  3459   0.240E-03    0.464E-03
RMM:   6    -0.116186237805E+04    0.74782E-07   -0.74466E-07  2853   0.199E-03    0.176E-03
RMM:   7    -0.116186237805E+04   -0.30559E-08   -0.13548E-07  1590   0.186E-03    0.123E-03
RMM:   8    -0.116186237804E+04    0.14901E-07   -0.18361E-08  1032   0.181E-03
   5 F= -.11618624E+04 E0= -.11618609E+04  d E =-.554322E-04  mag=     7.9801
