       N       E                     dE             d eps       ncg     rms          rms(c)
DAV:   1    -0.115750209598E+04   -0.11575E+04   -0.19143E-05  3776   0.127E-02    0.250E-02
RMM:   2    -0.115750209587E+04    0.11026E-06   -0.18463E-05  3245   0.748E-03    0.423E-02
RMM:   3    -0.115750209667E+04   -0.79564E-06   -0.96016E-06  2860   0.381E-03    0.307E-03
RMM:   4    -0.115750209709E+04   -0.41706E-06   -0.45241E-06  2276   0.346E-03    0.687E-03
RMM:   5    -0.115750209741E+04   -0.32669E-06   -0.33278E-06  1825   0.266E-03    0.508E-03
RMM:   6    -0.115750209763E+04   -0.21687E-06   -0.18469E-06  1499   0.260E-03    0.134E-03
RMM:   7    -0.115750209779E+04   -0.16211E-06   -0.12351E-06  1254   0.210E-03    0.174E-03
RMM:   8    -0.115750209789E+04   -0.98808E-07   -0.73044E-07  1132   0.218E-03
   1 F= -.11575021E+04 E0= -.11575021E+04  d E =-.115750E+04  mag=    14.0000
       N       E                     dE             d eps       ncg     rms          rms(c)
DAV:   1    -0.115750232310E+04   -0.22530E-03   -0.27406E-01  6336   0.614E-01    0.177E-01
RMM:   2    -0.115750284106E+04   -0.51796E-03   -0.82229E-03  6153   0.119E-01    0.153E-01
RMM:   3    -0.115750279079E+04    0.50265E-04   -0.36992E-04  4961   0.369E-02    0.100E-01
RMM:   4    -0.115750271695E+04    0.73838E-04   -0.20311E-04  3941   0.168E-02    0.516E-02
RMM:   5    -0.115750270519E+04    0.11767E-04   -0.55318E-05  3580   0.108E-02    0.406E-02
RMM:   6    -0.115750270645E+04   -0.12588E-05   -0.16788E-05  3425   0.632E-03    0.163E-02
RMM:   7    -0.115750270690E+04   -0.45460E-06   -0.78593E-06  3075   0.400E-03    0.113E-02
RMM:   8    -0.115750270728E+04   -0.38366E-06   -0.45511E-06  2899   0.341E-03
   2 F= -.11575027E+04 E0= -.11575027E+04  d E =-.609393E-03  mag=    14.0000
       N       E                     dE             d eps       ncg     rms          rms(c)
DAV:   1    -0.115750324885E+04   -0.54195E-03   -0.53212E-02  6144   0.267E-01    0.779E-02
RMM:   2    -0.115750328062E+04   -0.31773E-04   -0.18174E-03  6046   0.553E-02    0.745E-02
RMM:   3    -0.115750325357E+04    0.27054E-04   -0.73614E-05  3523   0.167E-02    0.491E-02
RMM:   4    -0.115750322469E+04    0.28883E-04   -0.71682E-05  3524   0.984E-03    0.300E-02
RMM:   5    -0.115750321966E+04    0.50228E-05   -0.19072E-05  3285   0.638E-03    0.212E-02
RMM:   6    -0.115750321977E+04   -0.10840E-06   -0.81258E-06  2889   0.378E-03    0.114E-02
RMM:   7    -0.115750321999E+04   -0.22061E-06   -0.33220E-06  2306   0.313E-03    0.831E-03
RMM:   8    -0.115750322015E+04   -0.15902E-06   -0.19892E-06  1883   0.231E-03
   3 F= -.11575032E+04 E0= -.11575032E+04  d E =-.512867E-03  mag=    14.0000
