       N       E                     dE             d eps       ncg     rms          rms(c)
DAV:   1    -0.115627290173E+04   -0.11563E+04   -0.29914E-06  3696   0.306E-03    0.408E-03
RMM:   2    -0.115627290190E+04   -0.17075E-06   -0.10811E-06  1698   0.232E-03    0.549E-03
RMM:   3    -0.115627290193E+04   -0.33775E-07   -0.12565E-07   676   0.167E-03    0.148E-03
RMM:   4    -0.115627290200E+04   -0.65105E-07   -0.96255E-08   573   0.168E-03    0.966E-04
RMM:   5    -0.115627290205E+04   -0.52372E-07   -0.76664E-08   520   0.169E-03    0.855E-04
RMM:   6    -0.115627290217E+04   -0.12013E-06   -0.21052E-07   614   0.177E-03    0.634E-04
RMM:   7    -0.115627290223E+04   -0.64392E-07   -0.17790E-07   560   0.175E-03    0.555E-04
RMM:   8    -0.115627290228E+04   -0.51252E-07   -0.16514E-07   559   0.176E-03
   1 F= -.11562729E+04 E0= -.11562729E+04  d E =-.115627E+04  mag=    14.0000
       N       E                     dE             d eps       ncg     rms          rms(c)
DAV:   1    -0.115627316740E+04   -0.26516E-03   -0.73375E-02  6104   0.294E-01    0.632E-02
RMM:   2    -0.115627332014E+04   -0.15274E-03   -0.17453E-03  6106   0.519E-02    0.445E-02
RMM:   3    -0.115627331704E+04    0.31034E-05   -0.80103E-05  3258   0.171E-02    0.280E-02
RMM:   4    -0.115627331148E+04    0.55510E-05   -0.26581E-05  3102   0.711E-03    0.162E-02
RMM:   5    -0.115627331030E+04    0.11812E-05   -0.10875E-05  2821   0.444E-03    0.963E-03
RMM:   6    -0.115627331071E+04   -0.40335E-06   -0.36046E-06  2054   0.308E-03    0.475E-03
RMM:   7    -0.115627331093E+04   -0.22324E-06   -0.15631E-06  1495   0.234E-03    0.245E-03
RMM:   8    -0.115627331107E+04   -0.14313E-06   -0.68683E-07  1134   0.210E-03
   2 F= -.11562733E+04 E0= -.11562733E+04  d E =-.408789E-03  mag=    14.0000
       N       E                     dE             d eps       ncg     rms          rms(c)
DAV:   1    -0.115627352293E+04   -0.21200E-03   -0.17693E-02  6080   0.147E-01    0.403E-02
RMM:   2    -0.115627355204E+04   -0.29101E-04   -0.47341E-04  4936   0.280E-02    0.339E-02
RMM:   3    -0.115627355005E+04    0.19882E-05   -0.30130E-05  3088   0.105E-02    0.205E-02
RMM:   4    -0.115627354635E+04    0.36955E-05   -0.13280E-05  2916   0.488E-03    0.137E-02
RMM:   5    -0.115627354541E+04    0.94593E-06   -0.56507E-06  2636   0.350E-03    0.509E-03
RMM:   6    -0.115627354557E+04   -0.16038E-06   -0.15627E-06  1470   0.229E-03    0.311E-03
RMM:   7    -0.115627354566E+04   -0.90091E-07   -0.60750E-07  1097   0.196E-03    0.196E-03
RMM:   8    -0.115627354572E+04   -0.67826E-07   -0.28191E-07   830   0.184E-03
   3 F= -.11562735E+04 E0= -.11562735E+04  d E =-.234651E-03  mag=    14.0000
       N       E                     dE             d eps       ncg     rms          rms(c)
DAV:   1    -0.115627377153E+04   -0.22588E-03   -0.39779E-02  6080   0.217E-01    0.473E-02
RMM:   2    -0.115627385891E+04   -0.87376E-04   -0.93298E-04  5446   0.381E-02    0.324E-02
RMM:   3    -0.115627385957E+04   -0.66462E-06   -0.46683E-05  3159   0.132E-02    0.204E-02
RMM:   4    -0.115627385774E+04    0.18347E-05   -0.14978E-05  3016   0.545E-03    0.128E-02
RMM:   5    -0.115627385741E+04    0.32868E-06   -0.56708E-06  2456   0.356E-03    0.589E-03
RMM:   6    -0.115627385768E+04   -0.27014E-06   -0.19676E-06  1539   0.252E-03    0.342E-03
RMM:   7    -0.115627385781E+04   -0.12579E-06   -0.75795E-07  1100   0.211E-03    0.171E-03
RMM:   8    -0.115627385790E+04   -0.91473E-07   -0.34812E-07   771   0.197E-03
   4 F= -.11562739E+04 E0= -.11562739E+04  d E =-.312173E-03  mag=    14.0000
       N       E                     dE             d eps       ncg     rms          rms(c)
DAV:   1    -0.115627413478E+04   -0.27697E-03   -0.87760E-02  6080   0.321E-01    0.644E-02
RMM:   2    -0.115627433140E+04   -0.19663E-03   -0.20291E-03  6139   0.553E-02    0.424E-02
RMM:   3    -0.115627433170E+04   -0.29874E-06   -0.93511E-05  3485   0.181E-02    0.273E-02
RMM:   4    -0.115627432836E+04    0.33419E-05   -0.26569E-05  3265   0.715E-03    0.165E-02
RMM:   5    -0.115627432833E+04    0.27707E-07   -0.10837E-05  2891   0.441E-03    0.644E-03
RMM:   6    -0.115627432891E+04   -0.58161E-06   -0.34689E-06  2080   0.306E-03    0.331E-03
RMM:   7    -0.115627432917E+04   -0.25955E-06   -0.16967E-06  1555   0.235E-03    0.226E-03
RMM:   8    -0.115627432937E+04   -0.19846E-06   -0.80951E-07  1121   0.217E-03
   5 F= -.11562743E+04 E0= -.11562743E+04  d E =-.471473E-03  mag=    14.0000
       N       E                     dE             d eps       ncg     rms          rms(c)
DAV:   1    -0.115627460349E+04   -0.27432E-03   -0.11766E-01  6112   0.371E-01    0.736E-02
RMM:   2    -0.115627486841E+04   -0.26492E-03   -0.27236E-03  6274   0.637E-02    0.458E-02
RMM:   3    -0.115627486770E+04    0.70884E-06   -0.12021E-04  3607   0.200E-02    0.290E-02
RMM:   4    -0.115627486283E+04    0.48678E-05   -0.33148E-05  3398   0.799E-03    0.164E-02
RMM:   5    -0.115627486318E+04   -0.34095E-06   -0.13054E-05  3048   0.487E-03    0.725E-03
RMM:   6    -0.115627486388E+04   -0.70258E-06   -0.44250E-06  2328   0.340E-03    0.421E-03
RMM:   7    -0.115627486424E+04   -0.36022E-06   -0.23401E-06  1865   0.253E-03    0.275E-03
RMM:   8    -0.115627486452E+04   -0.28079E-06   -0.11427E-06  1392   0.232E-03
   6 F= -.11562749E+04 E0= -.11562749E+04  d E =-.535149E-03  mag=    14.0000
       N       E                     dE             d eps       ncg     rms          rms(c)
DAV:   1    -0.115627513230E+04   -0.26806E-03   -0.87778E-02  6048   0.320E-01    0.650E-02
RMM:   2    -0.115627533296E+04   -0.20067E-03   -0.20244E-03  6141   0.550E-02    0.406E-02
RMM:   3    -0.115627533358E+04   -0.61633E-06   -0.90280E-05  3509   0.178E-02    0.253E-02
RMM:   4    -0.115627533042E+04    0.31606E-05   -0.26565E-05  3316   0.718E-03    0.145E-02
RMM:   5    -0.115627533077E+04   -0.34753E-06   -0.10382E-05  2922   0.438E-03    0.735E-03
RMM:   6    -0.115627533136E+04   -0.58957E-06   -0.36442E-06  2186   0.312E-03    0.403E-03
RMM:   7    -0.115627533165E+04   -0.29700E-06   -0.18305E-06  1669   0.239E-03    0.234E-03
RMM:   8    -0.115627533189E+04   -0.23648E-06   -0.88303E-07  1247   0.222E-03
   7 F= -.11562753E+04 E0= -.11562753E+04  d E =-.467370E-03  mag=    14.0000
       N       E                     dE             d eps       ncg     rms          rms(c)
DAV:   1    -0.115627550935E+04   -0.17770E-03   -0.26218E-02  6112   0.175E-01    0.362E-02
RMM:   2    -0.115627556592E+04   -0.56567E-04   -0.58288E-04  4781   0.301E-02    0.223E-02
RMM:   3    -0.115627556777E+04   -0.18467E-05   -0.35443E-05  3276   0.116E-02    0.136E-02
RMM:   4    -0.115627556727E+04    0.50280E-06   -0.11216E-05  2976   0.477E-03    0.915E-03
RMM:   5    -0.115627556725E+04    0.17972E-07   -0.39046E-06  2263   0.320E-03    0.450E-03
RMM:   6    -0.115627556749E+04   -0.24500E-06   -0.16106E-06  1566   0.234E-03    0.196E-03
RMM:   7    -0.115627556761E+04   -0.11871E-06   -0.67488E-07  1169   0.209E-03    0.137E-03
RMM:   8    -0.115627556769E+04   -0.83470E-07   -0.34422E-07   852   0.194E-03
   8 F= -.11562756E+04 E0= -.11562756E+04  d E =-.235805E-03  mag=    14.0000
       N       E                     dE             d eps       ncg     rms          rms(c)
DAV:   1    -0.115627576109E+04   -0.19348E-03   -0.33022E-02  6064   0.197E-01    0.397E-02
RMM:   2    -0.115627583486E+04   -0.73775E-04   -0.74617E-04  5079   0.339E-02    0.247E-02
RMM:   3    -0.115627583670E+04   -0.18427E-05   -0.40218E-05  3266   0.123E-02    0.154E-02
RMM:   4    -0.115627583610E+04    0.60712E-06   -0.12324E-05  2955   0.500E-03    0.101E-02
RMM:   5    -0.115627583601E+04    0.86322E-07   -0.46422E-06  2362   0.334E-03    0.447E-03
RMM:   6    -0.115627583630E+04   -0.28871E-06   -0.19386E-06  1582   0.240E-03    0.222E-03
RMM:   7    -0.115627583641E+04   -0.10997E-06   -0.69173E-07  1139   0.206E-03    0.134E-03
RMM:   8    -0.115627583649E+04   -0.84707E-07   -0.29847E-07   803   0.189E-03
   9 F= -.11562758E+04 E0= -.11562758E+04  d E =-.268799E-03  mag=    14.0000
       N       E                     dE             d eps       ncg     rms          rms(c)
DAV:   1    -0.115627604915E+04   -0.21274E-03   -0.54424E-02  6064   0.253E-01    0.508E-02
RMM:   2    -0.115627617263E+04   -0.12349E-03   -0.12420E-03  5646   0.435E-02    0.304E-02
RMM:   3    -0.115627617427E+04   -0.16361E-05   -0.59788E-05  3364   0.148E-02    0.191E-02
RMM:   4    -0.115627617282E+04    0.14456E-05   -0.17801E-05  3119   0.600E-03    0.118E-02
RMM:   5    -0.115627617288E+04   -0.57669E-07   -0.64937E-06  2480   0.370E-03    0.521E-03
RMM:   6    -0.115627617327E+04   -0.38656E-06   -0.25202E-06  1779   0.268E-03    0.230E-03
RMM:   7    -0.115627617345E+04   -0.18155E-06   -0.10733E-06  1305   0.219E-03    0.145E-03
RMM:   8    -0.115627617358E+04   -0.12686E-06   -0.50927E-07   939   0.205E-03
  10 F= -.11562762E+04 E0= -.11562762E+04  d E =-.337083E-03  mag=    14.0000
       N       E                     dE             d eps       ncg     rms          rms(c)
DAV:   1    -0.115627637735E+04   -0.20390E-03   -0.10620E-01  6064   0.354E-01    0.719E-02
RMM:   2    -0.115627662392E+04   -0.24658E-03   -0.24651E-03  6219   0.611E-02    0.435E-02
RMM:   3    -0.115627662530E+04   -0.13812E-05   -0.10981E-04  3554   0.194E-02    0.268E-02
RMM:   4    -0.115627662154E+04    0.37648E-05   -0.29450E-05  3336   0.771E-03    0.155E-02
RMM:   5    -0.115627662146E+04    0.83746E-07   -0.12534E-05  2976   0.475E-03    0.832E-03
RMM:   6    -0.115627662210E+04   -0.64452E-06   -0.43295E-06  2302   0.338E-03    0.462E-03
RMM:   7    -0.115627662243E+04   -0.33474E-06   -0.22181E-06  1812   0.247E-03    0.251E-03
RMM:   8    -0.115627662265E+04   -0.21703E-06   -0.99822E-07  1313   0.227E-03
  11 F= -.11562766E+04 E0= -.11562766E+04  d E =-.449075E-03  mag=    14.0000
