       N       E                     dE             d eps       ncg     rms          rms(c)
DAV:   1    -0.116308448653E+04   -0.11631E+04   -0.32897E-06  3824   0.209E-03    0.135E-03
RMM:   2    -0.116308448653E+04   -0.24156E-08   -0.15810E-07   786   0.166E-03    0.109E-03
RMM:   3    -0.116308448653E+04   -0.16589E-08   -0.17204E-08   404   0.153E-03    0.479E-04
RMM:   4    -0.116308448653E+04    0.45111E-09   -0.13324E-08   314   0.153E-03    0.270E-04
RMM:   5    -0.116308448653E+04   -0.13097E-08   -0.28446E-09   256   0.153E-03    0.203E-04
RMM:   6    -0.116308448653E+04   -0.12515E-08   -0.35403E-09   212   0.153E-03    0.191E-04
RMM:   7    -0.116308448653E+04   -0.13242E-08   -0.18153E-09   197   0.153E-03    0.173E-04
RMM:   8    -0.116308448654E+04   -0.36089E-08   -0.79177E-09   189   0.154E-03
   1 F= -.11630845E+04 E0= -.11630845E+04  d E =-.116308E+04  mag=     4.0000
       N       E                     dE             d eps       ncg     rms          rms(c)
DAV:   1    -0.116308471000E+04   -0.22346E-03   -0.26141E-01  6400   0.599E-01    0.167E-01
RMM:   2    -0.116308509903E+04   -0.38903E-03   -0.85302E-03  6139   0.120E-01    0.181E-01
RMM:   3    -0.116308501925E+04    0.79775E-04   -0.35774E-04  4797   0.359E-02    0.126E-01
RMM:   4    -0.116308494904E+04    0.70218E-04   -0.26023E-04  4550   0.183E-02    0.688E-02
RMM:   5    -0.116308491675E+04    0.32289E-04   -0.68902E-05  3771   0.118E-02    0.199E-02
RMM:   6    -0.116308491714E+04   -0.38781E-06   -0.19470E-05  3431   0.645E-03    0.143E-02
RMM:   7    -0.116308491758E+04   -0.44062E-06   -0.80772E-06  3192   0.439E-03    0.116E-02
RMM:   8    -0.116308491800E+04   -0.42535E-06   -0.47952E-06  3005   0.331E-03
   2 F= -.11630849E+04 E0= -.11630849E+04  d E =-.431463E-03  mag=     4.0000
       N       E                     dE             d eps       ncg     rms          rms(c)
DAV:   1    -0.116308535811E+04   -0.44054E-03   -0.61146E-02  6144   0.284E-01    0.912E-02
RMM:   2    -0.116308542059E+04   -0.62477E-04   -0.22139E-03  6052   0.605E-02    0.995E-02
RMM:   3    -0.116308539138E+04    0.29207E-04   -0.86862E-05  3583   0.186E-02    0.688E-02
RMM:   4    -0.116308536153E+04    0.29857E-04   -0.85895E-05  3580   0.110E-02    0.375E-02
RMM:   5    -0.116308535513E+04    0.64007E-05   -0.27932E-05  3362   0.752E-03    0.212E-02
RMM:   6    -0.116308535532E+04   -0.19805E-06   -0.79747E-06  2879   0.444E-03    0.118E-02
RMM:   7    -0.116308535546E+04   -0.13439E-06   -0.32691E-06  2187   0.300E-03    0.854E-03
RMM:   8    -0.116308535557E+04   -0.11196E-06   -0.21835E-06  1983   0.251E-03
   3 F= -.11630854E+04 E0= -.11630854E+04  d E =-.437570E-03  mag=     4.0000
