       N       E                     dE             d eps       ncg     rms          rms(c)
DAV:   1    -0.116518959242E+04   -0.11652E+04   -0.21566E-06  3392   0.171E-03    0.151E-03
RMM:   2    -0.116518959241E+04    0.15687E-07    0.00000E+00   463   0.870E-04    0.900E-04
RMM:   3    -0.116518959240E+04    0.10012E-07    0.00000E+00   264   0.868E-04    0.433E-04
RMM:   4    -0.116518959239E+04    0.50495E-08    0.00000E+00   188   0.870E-04    0.582E-05
RMM:   5    -0.116518959239E+04    0.29104E-10    0.00000E+00   139   0.870E-04    0.286E-05
RMM:   6    -0.116518959239E+04    0.49477E-09    0.00000E+00   117   0.870E-04    0.174E-05
RMM:   7    -0.116518959239E+04   -0.55297E-09    0.00000E+00   103   0.870E-04    0.956E-06
RMM:   8    -0.116518959239E+04    0.87311E-10    0.00000E+00    98   0.870E-04
   1 F= -.11651896E+04 E0= -.11651802E+04  d E =-.116519E+04  mag=     3.9931
       N       E                     dE             d eps       ncg     rms          rms(c)
DAV:   1    -0.116518910700E+04    0.48540E-03   -0.10252E-01  6256   0.360E-01    0.118E-01
RMM:   2    -0.116518912938E+04   -0.22388E-04   -0.37314E-03  6082   0.723E-02    0.103E-01
RMM:   3    -0.116518902509E+04    0.10429E-03   -0.14811E-04  4128   0.169E-02    0.663E-02
RMM:   4    -0.116518895941E+04    0.65680E-04   -0.24505E-04  4362   0.155E-02    0.346E-02
RMM:   5    -0.116518894612E+04    0.13297E-04   -0.31949E-05  3452   0.639E-03    0.203E-02
RMM:   6    -0.116518894541E+04    0.70756E-06   -0.10392E-05  2792   0.344E-03    0.127E-02
RMM:   7    -0.116518894581E+04   -0.40178E-06   -0.39298E-06  2419   0.256E-03    0.493E-03
RMM:   8    -0.116518894575E+04    0.66939E-07   -0.69235E-07  1669   0.202E-03
   2 F= -.11651889E+04 E0= -.11651795E+04  d E =0.646646E-03  mag=     3.9932
       N       E                     dE             d eps       ncg     rms          rms(c)
DAV:   1    -0.116519005084E+04   -0.11050E-02   -0.25385E-02  6144   0.173E-01    0.673E-02
RMM:   2    -0.116519000450E+04    0.46346E-04   -0.10914E-03  5779   0.373E-02    0.611E-02
RMM:   3    -0.116518996036E+04    0.44137E-04   -0.48755E-05  3485   0.900E-03    0.393E-02
RMM:   4    -0.116518992973E+04    0.30636E-04   -0.12674E-04  3569   0.110E-02    0.182E-02
RMM:   5    -0.116518992596E+04    0.37616E-05   -0.12571E-05  2990   0.405E-03    0.160E-02
RMM:   6    -0.116518992530E+04    0.66211E-06   -0.27185E-06  2104   0.218E-03    0.125E-02
RMM:   7    -0.116518992530E+04   -0.22410E-08   -0.83152E-07  1520   0.195E-03    0.600E-03
RMM:   8    -0.116518992525E+04    0.56738E-07   -0.18000E-06  1707   0.210E-03
   3 F= -.11651899E+04 E0= -.11651806E+04  d E =-.979502E-03  mag=     3.9932
       N       E                     dE             d eps       ncg     rms          rms(c)
DAV:   1    -0.116519003490E+04   -0.10959E-03   -0.39713E-03  6160   0.714E-02    0.215E-02
RMM:   2    -0.116519003611E+04   -0.12165E-05   -0.10972E-04  3377   0.134E-02    0.196E-02
RMM:   3    -0.116519003517E+04    0.94472E-06   -0.11326E-05  3021   0.479E-03    0.110E-02
RMM:   4    -0.116519003374E+04    0.14312E-05   -0.46461E-06  2512   0.262E-03    0.910E-03
RMM:   5    -0.116519003281E+04    0.92383E-06   -0.36892E-07  1282   0.194E-03    0.252E-03
RMM:   6    -0.116519003280E+04    0.15294E-07   -0.55407E-07   855   0.195E-03    0.118E-03
RMM:   7    -0.116519003280E+04    0.23720E-08   -0.28230E-09   493   0.180E-03    0.674E-04
RMM:   8    -0.116519003279E+04    0.66502E-08    0.00000E+00   465   0.178E-03
   4 F= -.11651900E+04 E0= -.11651807E+04  d E =-.107542E-03  mag=     3.9931
