       N       E                     dE             d eps       ncg     rms          rms(c)
DAV:   1     0.117989938893E+05    0.11799E+05   -0.41773E+05  6168   0.130E+03
DAV:   2     0.609961396141E+03   -0.11189E+05   -0.99937E+04  6152   0.372E+02
DAV:   3    -0.137479259805E+04   -0.19848E+04   -0.19153E+04  6616   0.163E+02
DAV:   4    -0.150430146508E+04   -0.12951E+03   -0.12732E+03  8192   0.429E+01
DAV:   5    -0.151198703019E+04   -0.76856E+01   -0.76572E+01 11032   0.905E+00    0.180E+02
RMM:   6    -0.116741496349E+04    0.34457E+03   -0.15674E+03  6246   0.337E+01    0.952E+01
RMM:   7    -0.115480977234E+04    0.12605E+02   -0.60395E+01  6360   0.969E+00    0.561E+01
RMM:   8    -0.116113711637E+04   -0.63273E+01   -0.33627E+01  6274   0.652E+00    0.220E+01
RMM:   9    -0.116138196715E+04   -0.24485E+00   -0.56425E+00  6436   0.220E+00    0.914E+00
RMM:  10    -0.116246708243E+04   -0.10851E+01   -0.25875E+00  6476   0.131E+00    0.836E+00
RMM:  11    -0.116262821546E+04   -0.16113E+00   -0.73816E-01  7052   0.656E-01    0.572E+00
RMM:  12    -0.116373306005E+04   -0.11048E+01   -0.10591E+00  6205   0.856E-01    0.305E+00
RMM:  13    -0.116415724505E+04   -0.42418E+00   -0.39662E-01  6396   0.556E-01    0.203E+00
RMM:  14    -0.116425137907E+04   -0.94134E-01   -0.10656E-01  7274   0.274E-01    0.142E+00
RMM:  15    -0.116433562879E+04   -0.84250E-01   -0.92854E-02  6315   0.262E-01    0.744E-01
RMM:  16    -0.116435189426E+04   -0.16265E-01   -0.36602E-02  6680   0.169E-01    0.376E-01
RMM:  17    -0.116435447644E+04   -0.25822E-02   -0.10081E-02  7866   0.790E-02    0.213E-01
RMM:  18    -0.116435485044E+04   -0.37401E-03   -0.21319E-03  6942   0.349E-02    0.117E-01
RMM:  19    -0.116435497729E+04   -0.12685E-03   -0.72258E-04  5964   0.216E-02    0.548E-02
RMM:  20    -0.116435502251E+04   -0.45222E-04   -0.27589E-04  4684   0.136E-02
   1 F= -.11643550E+04 E0= -.11643549E+04  d E =-.116436E+04  mag=     2.0120
       N       E                     dE             d eps       ncg     rms          rms(c)
DAV:   1    -0.116441924870E+04   -0.64271E-01   -0.91508E+01  7224   0.108E+01    0.304E+00
RMM:   2    -0.116470496868E+04   -0.28572E+00   -0.34839E+00  6144   0.219E+00    0.265E+00
RMM:   3    -0.116469124799E+04    0.13721E-01   -0.17360E-01  6682   0.517E-01    0.173E+00
RMM:   4    -0.116468036585E+04    0.10882E-01   -0.57828E-02  6646   0.218E-01    0.100E+00
RMM:   5    -0.116467680224E+04    0.35636E-02   -0.27497E-02  6638   0.140E-01    0.296E-01
RMM:   6    -0.116467664519E+04    0.15705E-03   -0.29816E-03  7440   0.460E-02    0.225E-01
RMM:   7    -0.116467673178E+04   -0.86594E-04   -0.98369E-04  6947   0.225E-02    0.141E-01
RMM:   8    -0.116467702958E+04   -0.29780E-03   -0.91797E-04  6029   0.249E-02    0.106E-01
RMM:   9    -0.116467705960E+04   -0.30027E-04   -0.28115E-04  4524   0.132E-02
   2 F= -.11646771E+04 E0= -.11646620E+04  d E =-.322037E+00  mag=     2.4880
       N       E                     dE             d eps       ncg     rms          rms(c)
DAV:   1    -0.116464630687E+04    0.30723E-01   -0.23263E+01  6952   0.549E+00    0.231E+00
RMM:   2    -0.116471797640E+04   -0.71670E-01   -0.81460E-01  6144   0.106E+00    0.175E+00
RMM:   3    -0.116471378585E+04    0.41906E-02   -0.49048E-02  6238   0.246E-01    0.106E+00
RMM:   4    -0.116471809589E+04   -0.43100E-02   -0.39547E-02  6243   0.156E-01    0.524E-01
RMM:   5    -0.116472043453E+04   -0.23386E-02   -0.14484E-02  6694   0.950E-02    0.310E-01
RMM:   6    -0.116472098137E+04   -0.54684E-03   -0.28001E-03  7145   0.393E-02    0.226E-01
RMM:   7    -0.116472192400E+04   -0.94263E-03   -0.12320E-03  6326   0.290E-02    0.126E-01
RMM:   8    -0.116472249123E+04   -0.56723E-03   -0.69555E-04  5586   0.241E-02    0.640E-02
RMM:   9    -0.116472259590E+04   -0.10467E-03   -0.19513E-04  4264   0.120E-02    0.460E-02
RMM:  10    -0.116472267529E+04   -0.79390E-04   -0.11781E-04  3928   0.955E-03
   3 F= -.11647227E+04 E0= -.11647147E+04  d E =-.367653E+00  mag=     3.9127
       N       E                     dE             d eps       ncg     rms          rms(c)
DAV:   1    -0.116484254023E+04   -0.11994E+00   -0.37870E+01  6560   0.708E+00    0.197E+00
RMM:   2    -0.116490922689E+04   -0.66687E-01   -0.11456E+00  6144   0.131E+00    0.161E+00
RMM:   3    -0.116490093286E+04    0.82940E-02   -0.51376E-02  6336   0.298E-01    0.101E+00
RMM:   4    -0.116489594966E+04    0.49832E-02   -0.22312E-02  6825   0.141E-01    0.604E-01
RMM:   5    -0.116489385345E+04    0.20962E-02   -0.58047E-03  6664   0.697E-02    0.211E-01
RMM:   6    -0.116489391612E+04   -0.62670E-04   -0.87862E-04  6511   0.263E-02    0.136E-01
RMM:   7    -0.116489394340E+04   -0.27280E-04   -0.37777E-04  5214   0.176E-02    0.548E-02
RMM:   8    -0.116489395570E+04   -0.12302E-04   -0.14718E-04  4375   0.115E-02
   4 F= -.11648940E+04 E0= -.11648858E+04  d E =-.171280E+00  mag=     3.9713
       N       E                     dE             d eps       ncg     rms          rms(c)
DAV:   1    -0.116489687272E+04   -0.29293E-02   -0.16454E+00  6960   0.150E+00    0.414E-01
RMM:   2    -0.116489975242E+04   -0.28797E-02   -0.49889E-02  6144   0.274E-01    0.345E-01
RMM:   3    -0.116489942873E+04    0.32368E-03   -0.23971E-03  6332   0.635E-02    0.220E-01
RMM:   4    -0.116489922946E+04    0.19927E-03   -0.10280E-03  5749   0.305E-02    0.130E-01
RMM:   5    -0.116489913353E+04    0.95935E-04   -0.23593E-04  4467   0.157E-02    0.434E-02
RMM:   6    -0.116489913882E+04   -0.52994E-05   -0.44590E-05  3768   0.803E-03    0.273E-02
RMM:   7    -0.116489914197E+04   -0.31462E-05   -0.24939E-05  3608   0.560E-03    0.163E-02
RMM:   8    -0.116489914264E+04   -0.66553E-06   -0.11828E-05  3489   0.420E-03
   5 F= -.11648991E+04 E0= -.11648909E+04  d E =-.176467E+00  mag=     3.9780
       N       E                     dE             d eps       ncg     rms          rms(c)
DAV:   1    -0.116499068414E+04   -0.91542E-01   -0.11228E+01  6504   0.387E+00    0.116E+00
RMM:   2    -0.116501805332E+04   -0.27369E-01   -0.39730E-01  6144   0.788E-01    0.128E+00
RMM:   3    -0.116501399586E+04    0.40575E-02   -0.16717E-02  6634   0.160E-01    0.920E-01
RMM:   4    -0.116501165876E+04    0.23371E-02   -0.99360E-03  6536   0.966E-02    0.546E-01
RMM:   5    -0.116500982541E+04    0.18333E-02   -0.37929E-03  6258   0.606E-02    0.132E-01
RMM:   6    -0.116500975830E+04    0.67109E-04   -0.32402E-04  4864   0.170E-02    0.869E-02
RMM:   7    -0.116500973465E+04    0.23650E-04   -0.12285E-04  4065   0.117E-02    0.511E-02
RMM:   8    -0.116500973797E+04   -0.33137E-05   -0.83622E-05  3821   0.101E-02
   6 F= -.11650097E+04 E0= -.11650019E+04  d E =-.110595E+00  mag=     3.9787
       N       E                     dE             d eps       ncg     rms          rms(c)
DAV:   1    -0.116502479491E+04   -0.15060E-01   -0.61951E+00  6544   0.287E+00    0.839E-01
RMM:   2    -0.116503981310E+04   -0.15018E-01   -0.21587E-01  6144   0.582E-01    0.917E-01
RMM:   3    -0.116503759009E+04    0.22230E-02   -0.92623E-03  6629   0.118E-01    0.653E-01
RMM:   4    -0.116503629926E+04    0.12908E-02   -0.52964E-03  6442   0.702E-02    0.394E-01
RMM:   5    -0.116503530384E+04    0.99542E-03   -0.20784E-03  6103   0.451E-02    0.936E-02
RMM:   6    -0.116503527016E+04    0.33685E-04   -0.14651E-04  4162   0.126E-02    0.640E-02
RMM:   7    -0.116503526081E+04    0.93456E-05   -0.67629E-05  3825   0.950E-03    0.363E-02
RMM:   8    -0.116503526455E+04   -0.37361E-05   -0.54965E-05  3658   0.799E-03
   7 F= -.11650353E+04 E0= -.11650278E+04  d E =-.136122E+00  mag=     3.9793
       N       E                     dE             d eps       ncg     rms          rms(c)
DAV:   1    -0.116505933223E+04   -0.24071E-01   -0.51964E+00  6512   0.267E+00    0.588E-01
RMM:   2    -0.116507066866E+04   -0.11336E-01   -0.14689E-01  6144   0.481E-01    0.546E-01
RMM:   3    -0.116506991552E+04    0.75315E-03   -0.60949E-03  6583   0.105E-01    0.361E-01
RMM:   4    -0.116506942178E+04    0.49374E-03   -0.25178E-03  6413   0.471E-02    0.236E-01
RMM:   5    -0.116506905602E+04    0.36576E-03   -0.91383E-04  5901   0.284E-02    0.466E-02
RMM:   6    -0.116506904771E+04    0.83064E-05   -0.77237E-05  3918   0.973E-03    0.348E-02
RMM:   7    -0.116506904597E+04    0.17397E-05   -0.38265E-05  3600   0.728E-03    0.187E-02
RMM:   8    -0.116506904832E+04   -0.23548E-05   -0.27407E-05  3505   0.587E-03
   8 F= -.11650690E+04 E0= -.11650621E+04  d E =-.337838E-01  mag=     3.9791
       N       E                     dE             d eps       ncg     rms          rms(c)
DAV:   1    -0.116506696400E+04    0.20820E-02   -0.10327E+01  6440   0.376E+00    0.831E-01
RMM:   2    -0.116508966285E+04   -0.22699E-01   -0.29287E-01  6144   0.678E-01    0.770E-01
RMM:   3    -0.116508815666E+04    0.15062E-02   -0.12149E-02  6633   0.148E-01    0.507E-01
RMM:   4    -0.116508717919E+04    0.97747E-03   -0.48449E-03  6710   0.659E-02    0.334E-01
RMM:   5    -0.116508646518E+04    0.71401E-03   -0.19090E-03  6400   0.404E-02    0.670E-02
RMM:   6    -0.116508644740E+04    0.17778E-04   -0.16567E-04  4326   0.136E-02    0.497E-02
RMM:   7    -0.116508644483E+04    0.25773E-05   -0.84433E-05  3812   0.102E-02    0.275E-02
RMM:   8    -0.116508644953E+04   -0.47037E-05   -0.59768E-05  3627   0.805E-03
   9 F= -.11650864E+04 E0= -.11650802E+04  d E =-.511850E-01  mag=     3.9797
       N       E                     dE             d eps       ncg     rms          rms(c)
DAV:   1    -0.116509480814E+04   -0.83633E-02   -0.95423E+00  6448   0.362E+00    0.710E-01
RMM:   2    -0.116511612555E+04   -0.21317E-01   -0.25592E-01  6144   0.617E-01    0.578E-01
RMM:   3    -0.116511522340E+04    0.90215E-03   -0.10611E-02  6435   0.144E-01    0.370E-01
RMM:   4    -0.116511474523E+04    0.47817E-03   -0.35517E-03  6991   0.548E-02    0.241E-01
RMM:   5    -0.116511433679E+04    0.40844E-03   -0.11888E-03  6555   0.294E-02    0.509E-02
RMM:   6    -0.116511433613E+04    0.66076E-06   -0.13290E-04  4166   0.116E-02    0.345E-02
RMM:   7    -0.116511433991E+04   -0.37785E-05   -0.67440E-05  3687   0.890E-03    0.210E-02
RMM:   8    -0.116511434404E+04   -0.41301E-05   -0.43896E-05  3589   0.679E-03
  10 F= -.11651143E+04 E0= -.11651082E+04  d E =-.278945E-01  mag=     3.9798
       N       E                     dE             d eps       ncg     rms          rms(c)
DAV:   1    -0.116509774910E+04    0.16591E-01   -0.14209E+01  6368   0.442E+00    0.869E-01
RMM:   2    -0.116512935229E+04   -0.31603E-01   -0.37923E-01  6144   0.754E-01    0.705E-01
RMM:   3    -0.116512802541E+04    0.13269E-02   -0.15816E-02  6449   0.176E-01    0.450E-01
RMM:   4    -0.116512732422E+04    0.70119E-03   -0.52512E-03  7098   0.669E-02    0.293E-01
RMM:   5    -0.116512672147E+04    0.60275E-03   -0.17410E-03  6813   0.357E-02    0.611E-02
RMM:   6    -0.116512672433E+04   -0.28594E-05   -0.21467E-04  4546   0.140E-02    0.416E-02
RMM:   7    -0.116512673099E+04   -0.66592E-05   -0.10766E-04  3856   0.104E-02    0.249E-02
RMM:   8    -0.116512673708E+04   -0.60926E-05   -0.65076E-05  3672   0.799E-03
  11 F= -.11651267E+04 E0= -.11651207E+04  d E =-.402876E-01  mag=     3.9808
       N       E                     dE             d eps       ncg     rms          rms(c)
DAV:   1    -0.116512319933E+04    0.35317E-02   -0.13250E+01  6304   0.416E+00    0.817E-01
RMM:   2    -0.116515313945E+04   -0.29940E-01   -0.33344E-01  6148   0.688E-01    0.598E-01
RMM:   3    -0.116515233919E+04    0.80026E-03   -0.13960E-02  6262   0.169E-01    0.389E-01
RMM:   4    -0.116515165407E+04    0.68512E-03   -0.45853E-03  7213   0.635E-02    0.205E-01
RMM:   5    -0.116515146492E+04    0.18915E-03   -0.12303E-03  6919   0.305E-02    0.495E-02
RMM:   6    -0.116515146770E+04   -0.27865E-05   -0.17320E-04  4173   0.121E-02    0.332E-02
RMM:   7    -0.116515147395E+04   -0.62468E-05   -0.97899E-05  3835   0.947E-03    0.169E-02
RMM:   8    -0.116515147804E+04   -0.40934E-05   -0.57085E-05  3667   0.762E-03
  12 F= -.11651515E+04 E0= -.11651455E+04  d E =-.247410E-01  mag=     3.9810
       N       E                     dE             d eps       ncg     rms          rms(c)
DAV:   1    -0.116513326851E+04    0.18205E-01   -0.12417E+01  6320   0.403E+00    0.789E-01
RMM:   2    -0.116516120313E+04   -0.27935E-01   -0.31130E-01  6150   0.664E-01    0.576E-01
RMM:   3    -0.116516047226E+04    0.73087E-03   -0.13074E-02  6253   0.163E-01    0.373E-01
RMM:   4    -0.116515983127E+04    0.64099E-03   -0.42822E-03  7281   0.612E-02    0.198E-01
RMM:   5    -0.116515965618E+04    0.17509E-03   -0.11484E-03  6893   0.293E-02    0.472E-02
RMM:   6    -0.116515966046E+04   -0.42767E-05   -0.16662E-04  4191   0.118E-02    0.316E-02
RMM:   7    -0.116515966645E+04   -0.59935E-05   -0.91596E-05  3846   0.930E-03    0.163E-02
RMM:   8    -0.116515967045E+04   -0.39956E-05   -0.56178E-05  3701   0.752E-03
  13 F= -.11651597E+04 E0= -.11651537E+04  d E =-.329334E-01  mag=     3.9811
       N       E                     dE             d eps       ncg     rms          rms(c)
DAV:   1    -0.116514697078E+04    0.12696E-01   -0.14288E+01  6368   0.431E+00    0.801E-01
RMM:   2    -0.116517730021E+04   -0.30329E-01   -0.35586E-01  6144   0.716E-01    0.615E-01
RMM:   3    -0.116517604310E+04    0.12571E-02   -0.14746E-02  6290   0.170E-01    0.393E-01
RMM:   4    -0.116517523058E+04    0.81252E-03   -0.53778E-03  7160   0.669E-02    0.236E-01
RMM:   5    -0.116517479173E+04    0.43885E-03   -0.15287E-03  6888   0.337E-02    0.615E-02
RMM:   6    -0.116517479822E+04   -0.64868E-05   -0.18961E-04  4455   0.130E-02    0.435E-02
RMM:   7    -0.116517480515E+04   -0.69274E-05   -0.10592E-04  3892   0.104E-02    0.239E-02
RMM:   8    -0.116517481107E+04   -0.59198E-05   -0.66466E-05  3704   0.800E-03
  14 F= -.11651748E+04 E0= -.11651692E+04  d E =-.151406E-01  mag=     3.9807
       N       E                     dE             d eps       ncg     rms          rms(c)
DAV:   1    -0.116517426441E+04    0.54074E-03   -0.52903E-01  6800   0.830E-01    0.154E-01
RMM:   2    -0.116517540050E+04   -0.11361E-02   -0.13325E-02  6148   0.138E-01    0.119E-01
RMM:   3    -0.116517534655E+04    0.53953E-04   -0.55726E-04  5263   0.330E-02    0.774E-02
RMM:   4    -0.116517531597E+04    0.30582E-04   -0.21413E-04  4111   0.141E-02    0.427E-02
RMM:   5    -0.116517530279E+04    0.13183E-04   -0.61627E-05  3651   0.809E-03    0.131E-02
RMM:   6    -0.116517530465E+04   -0.18601E-05   -0.21207E-05  3438   0.490E-03    0.893E-03
RMM:   7    -0.116517530573E+04   -0.10867E-05   -0.12331E-05  3252   0.373E-03    0.635E-03
RMM:   8    -0.116517530641E+04   -0.68198E-06   -0.74865E-06  2998   0.310E-03
  15 F= -.11651753E+04 E0= -.11651697E+04  d E =-.156360E-01  mag=     3.9806
       N       E                     dE             d eps       ncg     rms          rms(c)
DAV:   1    -0.116516278449E+04    0.12521E-01   -0.11779E+01  6376   0.397E+00    0.766E-01
RMM:   2    -0.116518913389E+04   -0.26349E-01   -0.29560E-01  6146   0.656E-01    0.549E-01
RMM:   3    -0.116518826676E+04    0.86713E-03   -0.11974E-02  6184   0.158E-01    0.355E-01
RMM:   4    -0.116518772608E+04    0.54068E-03   -0.42118E-03  7193   0.594E-02    0.185E-01
RMM:   5    -0.116518750352E+04    0.22256E-03   -0.10862E-03  6966   0.277E-02    0.430E-02
RMM:   6    -0.116518750699E+04   -0.34734E-05   -0.15752E-04  4116   0.115E-02    0.297E-02
RMM:   7    -0.116518751135E+04   -0.43609E-05   -0.78022E-05  3773   0.910E-03    0.171E-02
RMM:   8    -0.116518751546E+04   -0.41053E-05   -0.57348E-05  3672   0.752E-03
  16 F= -.11651875E+04 E0= -.11651819E+04  d E =-.122090E-01  mag=     3.9807
       N       E                     dE             d eps       ncg     rms          rms(c)
DAV:   1    -0.116518505830E+04    0.24530E-02   -0.17134E+00  6456   0.151E+00    0.292E-01
RMM:   2    -0.116518892951E+04   -0.38712E-02   -0.43371E-02  6146   0.250E-01    0.210E-01
RMM:   3    -0.116518879297E+04    0.13654E-03   -0.18131E-03  6150   0.606E-02    0.136E-01
RMM:   4    -0.116518871132E+04    0.81648E-04   -0.62672E-04  6028   0.233E-02    0.700E-02
RMM:   5    -0.116518867980E+04    0.31522E-04   -0.14736E-04  4099   0.122E-02    0.184E-02
RMM:   6    -0.116518868280E+04   -0.30042E-05   -0.37078E-05  3549   0.732E-03    0.105E-02
RMM:   7    -0.116518868506E+04   -0.22534E-05   -0.30344E-05  3382   0.567E-03    0.821E-03
RMM:   8    -0.116518868613E+04   -0.10719E-05   -0.14424E-05  3229   0.438E-03
  17 F= -.11651887E+04 E0= -.11651830E+04  d E =-.133797E-01  mag=     3.9809
       N       E                     dE             d eps       ncg     rms          rms(c)
DAV:   1    -0.116518136790E+04    0.73172E-02   -0.64877E+00  6368   0.295E+00    0.567E-01
RMM:   2    -0.116519557619E+04   -0.14208E-01   -0.16616E-01  6144   0.497E-01    0.437E-01
RMM:   3    -0.116519499801E+04    0.57818E-03   -0.67625E-03  6311   0.116E-01    0.287E-01
RMM:   4    -0.116519458062E+04    0.41739E-03   -0.25159E-03  6894   0.457E-02    0.151E-01
RMM:   5    -0.116519441107E+04    0.16954E-03   -0.62996E-04  5973   0.221E-02    0.388E-02
RMM:   6    -0.116519441253E+04   -0.14579E-05   -0.86413E-05  3766   0.960E-03    0.263E-02
RMM:   7    -0.116519441537E+04   -0.28437E-05   -0.54985E-05  3661   0.746E-03    0.146E-02
RMM:   8    -0.116519441870E+04   -0.33246E-05   -0.37762E-05  3584   0.621E-03
  18 F= -.11651944E+04 E0= -.11651883E+04  d E =-.573257E-02  mag=     3.9812
       N       E                     dE             d eps       ncg     rms          rms(c)
DAV:   1    -0.116519442183E+04   -0.64596E-05   -0.69926E-04  5824   0.308E-02    0.643E-03
RMM:   2    -0.116519442466E+04   -0.28239E-05   -0.31713E-05  3385   0.671E-03    0.602E-03
RMM:   3    -0.116519442541E+04   -0.74737E-06   -0.88082E-06  2822   0.338E-03    0.372E-03
RMM:   4    -0.116519442573E+04   -0.32442E-06   -0.43515E-06  1853   0.256E-03    0.307E-03
RMM:   5    -0.116519442589E+04   -0.16103E-06   -0.24092E-06  1301   0.230E-03    0.802E-04
RMM:   6    -0.116519442600E+04   -0.11155E-06   -0.12726E-06   926   0.209E-03    0.497E-04
RMM:   7    -0.116519442606E+04   -0.55879E-07   -0.67763E-07   740   0.199E-03    0.321E-04
RMM:   8    -0.116519442609E+04   -0.27096E-07   -0.35450E-07   647   0.194E-03
  19 F= -.11651944E+04 E0= -.11651883E+04  d E =-.573996E-02  mag=     3.9814
       N       E                     dE             d eps       ncg     rms          rms(c)
DAV:   1    -0.116519005876E+04    0.43673E-02   -0.40872E+00  6376   0.234E+00    0.424E-01
RMM:   2    -0.116519904191E+04   -0.89831E-02   -0.10253E-01  6144   0.390E-01    0.332E-01
RMM:   3    -0.116519875034E+04    0.29157E-03   -0.40936E-03  6158   0.909E-02    0.215E-01
RMM:   4    -0.116519855503E+04    0.19531E-03   -0.14149E-03  6331   0.345E-02    0.133E-01
RMM:   5    -0.116519842818E+04    0.12685E-03   -0.41308E-04  5480   0.184E-02    0.261E-02
RMM:   6    -0.116519842963E+04   -0.14496E-05   -0.46708E-05  3594   0.824E-03    0.185E-02
RMM:   7    -0.116519843228E+04   -0.26553E-05   -0.40113E-05  3539   0.640E-03    0.112E-02
RMM:   8    -0.116519843408E+04   -0.17928E-05   -0.23870E-05  3422   0.518E-03
  20 F= -.11651984E+04 E0= -.11651921E+04  d E =-.400799E-02  mag=     3.9813
       N       E                     dE             d eps       ncg     rms          rms(c)
DAV:   1    -0.116519813364E+04    0.29865E-03   -0.22825E-01  6424   0.554E-01    0.998E-02
RMM:   2    -0.116519864393E+04   -0.51029E-03   -0.58152E-03  6118   0.923E-02    0.788E-02
RMM:   3    -0.116519862193E+04    0.21994E-04   -0.20741E-04  4005   0.218E-02    0.520E-02
RMM:   4    -0.116519861098E+04    0.10956E-04   -0.83543E-05  3559   0.977E-03    0.289E-02
RMM:   5    -0.116519860694E+04    0.40339E-05   -0.30472E-05  3452   0.598E-03    0.671E-03
RMM:   6    -0.116519860799E+04   -0.10444E-05   -0.11426E-05  3259   0.376E-03    0.501E-03
RMM:   7    -0.116519860850E+04   -0.50770E-06   -0.59147E-06  2593   0.291E-03    0.310E-03
RMM:   8    -0.116519860880E+04   -0.30853E-06   -0.32515E-06  2012   0.246E-03
  21 F= -.11651986E+04 E0= -.11651922E+04  d E =-.418272E-02  mag=     3.9812
       N       E                     dE             d eps       ncg     rms          rms(c)
DAV:   1    -0.116519349302E+04    0.51155E-02   -0.38702E+00  6384   0.227E+00    0.419E-01
RMM:   2    -0.116520198707E+04   -0.84941E-02   -0.97811E-02  6144   0.382E-01    0.350E-01
RMM:   3    -0.116520169382E+04    0.29325E-03   -0.39219E-03  6191   0.883E-02    0.233E-01
RMM:   4    -0.116520147710E+04    0.21672E-03   -0.13804E-03  6340   0.338E-02    0.135E-01
RMM:   5    -0.116520134773E+04    0.12937E-03   -0.41993E-04  5462   0.184E-02    0.272E-02
RMM:   6    -0.116520134876E+04   -0.10292E-05   -0.48595E-05  3619   0.816E-03    0.190E-02
RMM:   7    -0.116520135049E+04   -0.17262E-05   -0.34976E-05  3509   0.609E-03    0.112E-02
RMM:   8    -0.116520135246E+04   -0.19719E-05   -0.24242E-05  3444   0.516E-03
  22 F= -.11652014E+04 E0= -.11651950E+04  d E =-.274365E-02  mag=     3.9811
       N       E                     dE             d eps       ncg     rms          rms(c)
DAV:   1    -0.116520135314E+04   -0.26489E-05   -0.10854E-04  3888   0.129E-02    0.488E-03
RMM:   2    -0.116520135443E+04   -0.12931E-05   -0.14023E-05  3257   0.539E-03    0.376E-03
RMM:   3    -0.116520135500E+04   -0.56844E-06   -0.52298E-06  2387   0.266E-03    0.191E-03
RMM:   4    -0.116520135518E+04   -0.18626E-06   -0.22533E-06  1779   0.239E-03    0.172E-03
RMM:   5    -0.116520135528E+04   -0.92332E-07   -0.78352E-07   755   0.200E-03    0.570E-04
RMM:   6    -0.116520135532E+04   -0.46464E-07   -0.45612E-07   664   0.195E-03    0.247E-04
RMM:   7    -0.116520135534E+04   -0.14363E-07   -0.19578E-07   558   0.191E-03    0.128E-04
RMM:   8    -0.116520135534E+04   -0.71304E-08   -0.80972E-08   487   0.190E-03
  23 F= -.11652014E+04 E0= -.11651950E+04  d E =-.274654E-02  mag=     3.9811
       N       E                     dE             d eps       ncg     rms          rms(c)
DAV:   1    -0.116519967184E+04    0.16835E-02   -0.14885E+00  6448   0.143E+00    0.280E-01
RMM:   2    -0.116520291997E+04   -0.32481E-02   -0.39272E-02  6144   0.244E-01    0.235E-01
RMM:   3    -0.116520274929E+04    0.17068E-03   -0.15905E-03  6147   0.561E-02    0.153E-01
RMM:   4    -0.116520264087E+04    0.10842E-03   -0.59457E-04  5413   0.230E-02    0.927E-02
RMM:   5    -0.116520257483E+04    0.66032E-04   -0.15313E-04  4122   0.137E-02    0.215E-02
RMM:   6    -0.116520257891E+04   -0.40740E-05   -0.37585E-05  3539   0.727E-03    0.140E-02
RMM:   7    -0.116520257994E+04   -0.10343E-05   -0.18194E-05  3430   0.519E-03    0.106E-02
RMM:   8    -0.116520258088E+04   -0.93359E-06   -0.11781E-05  3193   0.383E-03
  24 F= -.11652026E+04 E0= -.11651964E+04  d E =-.122553E-02  mag=     3.9810
       N       E                     dE             d eps       ncg     rms          rms(c)
DAV:   1    -0.116520255371E+04    0.26234E-04   -0.32004E-02  6368   0.209E-01    0.415E-02
RMM:   2    -0.116520262206E+04   -0.68349E-04   -0.83384E-04  5942   0.360E-02    0.343E-02
RMM:   3    -0.116520261805E+04    0.40116E-05   -0.25403E-05  3376   0.834E-03    0.223E-02
RMM:   4    -0.116520261569E+04    0.23595E-05   -0.11095E-05  3148   0.394E-03    0.126E-02
RMM:   5    -0.116520261463E+04    0.10611E-05   -0.19822E-06  2004   0.212E-03    0.250E-03
RMM:   6    -0.116520261463E+04   -0.51368E-08   -0.67494E-08   650   0.165E-03    0.152E-03
RMM:   7    -0.116520261463E+04    0.64028E-09   -0.16922E-08   520   0.162E-03    0.843E-04
RMM:   8    -0.116520261463E+04    0.18917E-08   -0.75860E-09   474   0.162E-03
  25 F= -.11652026E+04 E0= -.11651964E+04  d E =-.125928E-02  mag=     3.9810
       N       E                     dE             d eps       ncg     rms          rms(c)
DAV:   1    -0.116520221728E+04    0.39735E-03   -0.51441E-01  6432   0.845E-01    0.170E-01
RMM:   2    -0.116520335588E+04   -0.11386E-02   -0.13908E-02  6144   0.147E-01    0.142E-01
RMM:   3    -0.116520329443E+04    0.61454E-04   -0.50096E-04  5035   0.329E-02    0.943E-02
RMM:   4    -0.116520325319E+04    0.41233E-04   -0.18486E-04  3806   0.147E-02    0.508E-02
RMM:   5    -0.116520323539E+04    0.17803E-04   -0.57366E-05  3631   0.842E-03    0.113E-02
RMM:   6    -0.116520323652E+04   -0.11296E-05   -0.14632E-05  3388   0.463E-03    0.772E-03
RMM:   7    -0.116520323709E+04   -0.57001E-06   -0.69314E-06  2961   0.310E-03    0.517E-03
RMM:   8    -0.116520323744E+04   -0.35271E-06   -0.36578E-06  2526   0.271E-03
  26 F= -.11652032E+04 E0= -.11651971E+04  d E =-.622816E-03  mag=     3.9810
       N       E                     dE             d eps       ncg     rms          rms(c)
DAV:   1    -0.116520323584E+04    0.12536E-05   -0.12549E-03  6368   0.417E-02    0.874E-03
RMM:   2    -0.116520323833E+04   -0.24929E-05   -0.31650E-05  3191   0.755E-03    0.769E-03
RMM:   3    -0.116520323860E+04   -0.27470E-06   -0.28331E-06  2534   0.266E-03    0.419E-03
RMM:   4    -0.116520323850E+04    0.10811E-06   -0.75594E-09   532   0.144E-03    0.324E-03
RMM:   5    -0.116520323838E+04    0.11627E-06   -0.41372E-08   489   0.149E-03    0.844E-04
RMM:   6    -0.116520323837E+04    0.72032E-08   -0.95674E-09   423   0.151E-03    0.345E-04
RMM:   7    -0.116520323837E+04    0.15716E-08   -0.20859E-09   346   0.151E-03    0.228E-04
RMM:   8    -0.116520323837E+04    0.10186E-08   -0.21004E-09   301   0.151E-03
  27 F= -.11652032E+04 E0= -.11651971E+04  d E =-.623743E-03  mag=     3.9809
       N       E                     dE             d eps       ncg     rms          rms(c)
DAV:   1    -0.116520280690E+04    0.43148E-03   -0.42180E-01  6432   0.766E-01    0.159E-01
RMM:   2    -0.116520371956E+04   -0.91266E-03   -0.11267E-02  6144   0.131E-01    0.126E-01
RMM:   3    -0.116520366084E+04    0.58717E-04   -0.41326E-04  4855   0.302E-02    0.827E-02
RMM:   4    -0.116520362592E+04    0.34924E-04   -0.16076E-04  3768   0.137E-02    0.461E-02
RMM:   5    -0.116520361314E+04    0.12780E-04   -0.53679E-05  3548   0.809E-03    0.115E-02
RMM:   6    -0.116520361435E+04   -0.12120E-05   -0.14889E-05  3397   0.458E-03    0.847E-03
RMM:   7    -0.116520361501E+04   -0.65926E-06   -0.72831E-06  2984   0.316E-03    0.549E-03
RMM:   8    -0.116520361548E+04   -0.46825E-06   -0.40360E-06  2601   0.275E-03
  28 F= -.11652036E+04 E0= -.11651975E+04  d E =-.377108E-03  mag=     3.9809
       N       E                     dE             d eps       ncg     rms          rms(c)
DAV:   1    -0.116520360549E+04    0.95164E-05   -0.17663E-02  6128   0.157E-01    0.328E-02
RMM:   2    -0.116520364092E+04   -0.35431E-04   -0.44666E-04  4555   0.272E-02    0.275E-02
RMM:   3    -0.116520364058E+04    0.34570E-06   -0.23196E-05  3227   0.781E-03    0.162E-02
RMM:   4    -0.116520363962E+04    0.95939E-06   -0.67957E-06  3021   0.328E-03    0.128E-02
RMM:   5    -0.116520363836E+04    0.12610E-05   -0.12993E-06  1705   0.205E-03    0.260E-03
RMM:   6    -0.116520363838E+04   -0.21901E-07   -0.53841E-07   743   0.175E-03    0.113E-03
RMM:   7    -0.116520363838E+04    0.44674E-08   -0.16703E-08   401   0.158E-03    0.689E-04
RMM:   8    -0.116520363837E+04    0.38272E-08   -0.14985E-08   378   0.157E-03
  29 F= -.11652036E+04 E0= -.11651976E+04  d E =-.400001E-03  mag=     3.9809
