       N       E                     dE             d eps       ncg     rms          rms(c)
DAV:   1    -0.116353737652E+04   -0.11635E+04   -0.52083E-06  7504   0.462E-03    0.590E-03
RMM:   2    -0.116353737685E+04   -0.32890E-06   -0.22881E-06  4468   0.263E-03    0.736E-03
RMM:   3    -0.116353737694E+04   -0.92172E-07   -0.68225E-07  2690   0.198E-03    0.153E-03
RMM:   4    -0.116353737710E+04   -0.16709E-06   -0.38900E-07  2125   0.193E-03    0.155E-03
RMM:   5    -0.116353737722E+04   -0.11399E-06   -0.21959E-07  1713   0.188E-03    0.138E-03
RMM:   6    -0.116353737742E+04   -0.20317E-06   -0.24016E-07  1459   0.189E-03    0.125E-03
RMM:   7    -0.116353737778E+04   -0.35891E-06   -0.57871E-07  1850   0.199E-03    0.114E-03
RMM:   8    -0.116353737803E+04   -0.25377E-06   -0.39904E-07  1634   0.193E-03
   1 F= -.11635374E+04 E0= -.11635333E+04  d E =-.116354E+04  mag=    -3.0018
       N       E                     dE             d eps       ncg     rms          rms(c)
DAV:   1    -0.116353804557E+04   -0.66779E-03   -0.41646E-01 12832   0.746E-01    0.217E-01
RMM:   2    -0.116353868639E+04   -0.64082E-03   -0.13253E-02 12299   0.148E-01    0.198E-01
RMM:   3    -0.116353854138E+04    0.14500E-03   -0.69734E-04 11510   0.490E-02    0.126E-01
RMM:   4    -0.116353839383E+04    0.14755E-03   -0.50148E-04 10547   0.244E-02    0.728E-02
RMM:   5    -0.116353835484E+04    0.38993E-04   -0.91858E-05  8122   0.154E-02    0.246E-02
RMM:   6    -0.116353835644E+04   -0.15947E-05   -0.28405E-05  7070   0.735E-03    0.184E-02
RMM:   7    -0.116353835724E+04   -0.80706E-06   -0.10543E-05  6551   0.538E-03    0.158E-02
RMM:   8    -0.116353835784E+04   -0.60190E-06   -0.67594E-06  6439   0.377E-03
   2 F= -.11635384E+04 E0= -.11635342E+04  d E =-.979810E-03  mag=    -3.0052
       N       E                     dE             d eps       ncg     rms          rms(c)
DAV:   1    -0.116353928806E+04   -0.93082E-03   -0.88336E-02 12512   0.343E-01    0.100E-01
RMM:   2    -0.116353934439E+04   -0.56324E-04   -0.30541E-03 12192   0.708E-02    0.992E-02
RMM:   3    -0.116353929190E+04    0.52484E-04   -0.12668E-04  7743   0.231E-02    0.651E-02
RMM:   4    -0.116353924658E+04    0.45317E-04   -0.14477E-04  7381   0.136E-02    0.380E-02
RMM:   5    -0.116353923651E+04    0.10077E-04   -0.35108E-05  6991   0.858E-03    0.222E-02
RMM:   6    -0.116353923691E+04   -0.40238E-06   -0.11498E-05  6070   0.500E-03    0.159E-02
RMM:   7    -0.116353923732E+04   -0.40629E-06   -0.51839E-06  5328   0.364E-03    0.111E-02
RMM:   8    -0.116353923792E+04   -0.60035E-06   -0.34021E-06  5177   0.292E-03
   3 F= -.11635392E+04 E0= -.11635351E+04  d E =-.880072E-03  mag=    -3.0048
