       N       E                     dE             d eps       ncg     rms          rms(c)
DAV:   1    -0.116357245199E+04   -0.11636E+04   -0.63537E-06  3864   0.755E-03    0.751E-03
RMM:   2    -0.116357245583E+04   -0.38430E-05   -0.66878E-06  2580   0.347E-03    0.914E-03
RMM:   3    -0.116357245711E+04   -0.12773E-05   -0.17337E-06  1769   0.213E-03    0.550E-03
RMM:   4    -0.116357245808E+04   -0.97058E-06   -0.92033E-07  1464   0.222E-03    0.557E-03
RMM:   5    -0.116357245955E+04   -0.14683E-05   -0.56640E-07  1110   0.188E-03    0.520E-03
RMM:   6    -0.116357246225E+04   -0.27087E-05   -0.16010E-06  1481   0.221E-03    0.502E-03
RMM:   7    -0.116357246470E+04   -0.24473E-05   -0.11739E-06  1309   0.206E-03    0.470E-03
RMM:   8    -0.116357247773E+04   -0.13031E-04   -0.30932E-05  2662   0.647E-03
   1 F= -.11635725E+04 E0= -.11635725E+04  d E =-.116357E+04  mag=     4.0000
       N       E                     dE             d eps       ncg     rms          rms(c)
DAV:   1    -0.116356098244E+04    0.11482E-01   -0.49727E+00  6352   0.233E+00    0.116E+00
RMM:   2    -0.116358468946E+04   -0.23707E-01   -0.13381E-01  6165   0.466E-01    0.715E-01
RMM:   3    -0.116358738917E+04   -0.26997E-02   -0.77474E-03  6202   0.158E-01    0.348E-01
RMM:   4    -0.116358708652E+04    0.30264E-03   -0.22257E-03  6311   0.542E-02    0.159E-01
RMM:   5    -0.116358709714E+04   -0.10618E-04   -0.52555E-04  5271   0.287E-02    0.520E-02
RMM:   6    -0.116358710509E+04   -0.79517E-05   -0.69999E-05  3783   0.131E-02    0.315E-02
RMM:   7    -0.116358713057E+04   -0.25477E-04   -0.46299E-05  3651   0.844E-03    0.245E-02
RMM:   8    -0.116358714591E+04   -0.15343E-04   -0.21883E-05  3533   0.708E-03
   2 F= -.11635871E+04 E0= -.11635871E+04  d E =-.146682E-01  mag=     4.0000
       N       E                     dE             d eps       ncg     rms          rms(c)
DAV:   1    -0.116358878066E+04   -0.16501E-02   -0.92111E-01  6400   0.105E+00    0.480E-01
RMM:   2    -0.116359186877E+04   -0.30881E-02   -0.24990E-02  6163   0.205E-01    0.329E-01
RMM:   3    -0.116359212050E+04   -0.25173E-03   -0.15624E-03  6241   0.707E-02    0.172E-01
RMM:   4    -0.116359193516E+04    0.18533E-03   -0.75808E-04  5357   0.308E-02    0.878E-02
RMM:   5    -0.116359192511E+04    0.10057E-04   -0.15487E-04  4108   0.201E-02    0.356E-02
RMM:   6    -0.116359193704E+04   -0.11930E-04   -0.50354E-05  3621   0.954E-03    0.273E-02
RMM:   7    -0.116359194797E+04   -0.10936E-04   -0.21852E-05  3491   0.753E-03    0.244E-02
RMM:   8    -0.116359196686E+04   -0.18886E-04   -0.22236E-05  3414   0.625E-03
   3 F= -.11635920E+04 E0= -.11635920E+04  d E =-.482095E-02  mag=     4.0000
       N       E                     dE             d eps       ncg     rms          rms(c)
DAV:   1    -0.116359209617E+04   -0.14819E-03   -0.10723E+00  6272   0.114E+00    0.457E-01
RMM:   2    -0.116359587573E+04   -0.37796E-02   -0.25879E-02  6208   0.207E-01    0.272E-01
RMM:   3    -0.116359624261E+04   -0.36688E-03   -0.15586E-03  6206   0.727E-02    0.135E-01
RMM:   4    -0.116359615918E+04    0.83427E-04   -0.45272E-04  5065   0.251E-02    0.607E-02
RMM:   5    -0.116359616633E+04   -0.71468E-05   -0.11313E-04  3716   0.169E-02    0.259E-02
RMM:   6    -0.116359617636E+04   -0.10027E-04   -0.38116E-05  3535   0.885E-03    0.173E-02
RMM:   7    -0.116359618750E+04   -0.11141E-04   -0.20623E-05  3430   0.706E-03    0.142E-02
RMM:   8    -0.116359620453E+04   -0.17031E-04   -0.21060E-05  3363   0.600E-03
   4 F= -.11635962E+04 E0= -.11635962E+04  d E =-.423767E-02  mag=     4.0000
       N       E                     dE             d eps       ncg     rms          rms(c)
DAV:   1    -0.116359583164E+04    0.35586E-03   -0.10371E+00  6320   0.115E+00    0.380E-01
RMM:   2    -0.116359916610E+04   -0.33345E-02   -0.25040E-02  6441   0.198E-01    0.211E-01
RMM:   3    -0.116359940873E+04   -0.24262E-03   -0.13382E-03  6010   0.657E-02    0.107E-01
RMM:   4    -0.116359936747E+04    0.41251E-04   -0.27213E-04  4087   0.225E-02    0.504E-02
RMM:   5    -0.116359938127E+04   -0.13799E-04   -0.10935E-04  3609   0.150E-02    0.243E-02
RMM:   6    -0.116359939127E+04   -0.99915E-05   -0.35779E-05  3503   0.992E-03    0.147E-02
RMM:   7    -0.116359939958E+04   -0.83168E-05   -0.22345E-05  3388   0.679E-03    0.127E-02
RMM:   8    -0.116359941226E+04   -0.12682E-04   -0.18260E-05  3307   0.634E-03
   5 F= -.11635994E+04 E0= -.11635994E+04  d E =-.320774E-02  mag=     4.0000
       N       E                     dE             d eps       ncg     rms          rms(c)
DAV:   1    -0.116359993193E+04   -0.53235E-03   -0.65241E-01  6304   0.929E-01    0.217E-01
RMM:   2    -0.116360151317E+04   -0.15812E-02   -0.15923E-02  6378   0.157E-01    0.133E-01
RMM:   3    -0.116360153507E+04   -0.21902E-04   -0.77278E-04  5340   0.516E-02    0.790E-02
RMM:   4    -0.116360150368E+04    0.31388E-04   -0.17296E-04  3730   0.180E-02    0.399E-02
RMM:   5    -0.116360151344E+04   -0.97564E-05   -0.74149E-05  3541   0.123E-02    0.132E-02
RMM:   6    -0.116360152038E+04   -0.69368E-05   -0.27844E-05  3446   0.820E-03    0.103E-02
RMM:   7    -0.116360152662E+04   -0.62482E-05   -0.17335E-05  3308   0.579E-03    0.878E-03
RMM:   8    -0.116360153509E+04   -0.84675E-05   -0.13403E-05  3213   0.536E-03
   6 F= -.11636015E+04 E0= -.11636015E+04  d E =-.212283E-02  mag=     4.0000
       N       E                     dE             d eps       ncg     rms          rms(c)
DAV:   1    -0.116360174126E+04   -0.21464E-03   -0.86044E-01  6304   0.107E+00    0.210E-01
RMM:   2    -0.116360365658E+04   -0.19153E-02   -0.20632E-02  6269   0.177E-01    0.123E-01
RMM:   3    -0.116360366037E+04   -0.37886E-05   -0.10353E-03  5692   0.619E-02    0.777E-02
RMM:   4    -0.116360362452E+04    0.35841E-04   -0.22442E-04  3896   0.195E-02    0.406E-02
RMM:   5    -0.116360363264E+04   -0.81146E-05   -0.80319E-05  3533   0.132E-02    0.115E-02
RMM:   6    -0.116360363896E+04   -0.63205E-05   -0.31673E-05  3462   0.859E-03    0.944E-03
RMM:   7    -0.116360364398E+04   -0.50243E-05   -0.20087E-05  3299   0.630E-03    0.744E-03
RMM:   8    -0.116360364991E+04   -0.59280E-05   -0.14376E-05  3238   0.547E-03
   7 F= -.11636036E+04 E0= -.11636036E+04  d E =-.211482E-02  mag=     4.0000
       N       E                     dE             d eps       ncg     rms          rms(c)
DAV:   1    -0.116360363941E+04    0.45760E-05   -0.81039E-01  6256   0.104E+00    0.190E-01
RMM:   2    -0.116360538377E+04   -0.17444E-02   -0.19387E-02  6262   0.170E-01    0.112E-01
RMM:   3    -0.116360536642E+04    0.17351E-04   -0.93814E-04  5564   0.582E-02    0.715E-02
RMM:   4    -0.116360533161E+04    0.34802E-04   -0.21644E-04  3871   0.190E-02    0.380E-02
RMM:   5    -0.116360533827E+04   -0.66602E-05   -0.67507E-05  3522   0.125E-02    0.149E-02
RMM:   6    -0.116360534329E+04   -0.50151E-05   -0.28842E-05  3437   0.828E-03    0.103E-02
RMM:   7    -0.116360534721E+04   -0.39187E-05   -0.18743E-05  3312   0.640E-03    0.830E-03
RMM:   8    -0.116360535109E+04   -0.38816E-05   -0.12522E-05  3113   0.525E-03
   8 F= -.11636054E+04 E0= -.11636054E+04  d E =-.170118E-02  mag=     4.0000
       N       E                     dE             d eps       ncg     rms          rms(c)
DAV:   1    -0.116360532800E+04    0.19208E-04   -0.54862E-01  6288   0.852E-01    0.154E-01
RMM:   2    -0.116360651824E+04   -0.11902E-02   -0.13178E-02  6277   0.140E-01    0.893E-02
RMM:   3    -0.116360650235E+04    0.15890E-04   -0.62256E-04  4979   0.475E-02    0.578E-02
RMM:   4    -0.116360647697E+04    0.25389E-04   -0.15026E-04  3663   0.159E-02    0.290E-02
RMM:   5    -0.116360648182E+04   -0.48588E-05   -0.49459E-05  3501   0.105E-02    0.119E-02
RMM:   6    -0.116360648529E+04   -0.34676E-05   -0.21498E-05  3400   0.704E-03    0.877E-03
RMM:   7    -0.116360648782E+04   -0.25294E-05   -0.13698E-05  3216   0.544E-03    0.683E-03
RMM:   8    -0.116360649035E+04   -0.25243E-05   -0.92261E-06  2964   0.454E-03
   9 F= -.11636065E+04 E0= -.11636065E+04  d E =-.113926E-02  mag=     4.0000
       N       E                     dE             d eps       ncg     rms          rms(c)
DAV:   1    -0.116360629327E+04    0.19455E-03   -0.62516E-01  6272   0.908E-01    0.156E-01
RMM:   2    -0.116360762455E+04   -0.13313E-02   -0.14861E-02  6209   0.149E-01    0.923E-02
RMM:   3    -0.116360760856E+04    0.15988E-04   -0.72557E-04  5251   0.520E-02    0.604E-02
RMM:   4    -0.116360758235E+04    0.26215E-04   -0.17775E-04  3744   0.168E-02    0.309E-02
RMM:   5    -0.116360758501E+04   -0.26585E-05   -0.50182E-05  3482   0.107E-02    0.907E-03
RMM:   6    -0.116360758853E+04   -0.35270E-05   -0.22501E-05  3404   0.694E-03    0.759E-03
RMM:   7    -0.116360759060E+04   -0.20620E-05   -0.13589E-05  3203   0.544E-03    0.558E-03
RMM:   8    -0.116360759300E+04   -0.24012E-05   -0.96496E-06  3008   0.449E-03
  10 F= -.11636076E+04 E0= -.11636076E+04  d E =-.110265E-02  mag=     4.0000
       N       E                     dE             d eps       ncg     rms          rms(c)
DAV:   1    -0.116360766118E+04   -0.70581E-04   -0.27261E-01  6336   0.597E-01    0.103E-01
RMM:   2    -0.116360825210E+04   -0.59092E-03   -0.64854E-03  6235   0.978E-02    0.602E-02
RMM:   3    -0.116360824120E+04    0.10898E-04   -0.28283E-04  4075   0.327E-02    0.394E-02
RMM:   4    -0.116360823038E+04    0.10819E-04   -0.78781E-05  3510   0.114E-02    0.239E-02
RMM:   5    -0.116360823267E+04   -0.22899E-05   -0.24257E-05  3401   0.736E-03    0.113E-02
RMM:   6    -0.116360823458E+04   -0.19098E-05   -0.12298E-05  3240   0.511E-03    0.670E-03
RMM:   7    -0.116360823578E+04   -0.11934E-05   -0.68712E-06  2733   0.408E-03    0.516E-03
RMM:   8    -0.116360823678E+04   -0.10004E-05   -0.46481E-06  2408   0.332E-03
  11 F= -.11636082E+04 E0= -.11636082E+04  d E =-.643778E-03  mag=     4.0000
       N       E                     dE             d eps       ncg     rms          rms(c)
DAV:   1    -0.116360833677E+04   -0.10099E-03   -0.15391E-01  6312   0.448E-01    0.787E-02
RMM:   2    -0.116360866837E+04   -0.33160E-03   -0.36415E-03  6211   0.739E-02    0.459E-02
RMM:   3    -0.116360866260E+04    0.57723E-05   -0.15771E-04  3693   0.258E-02    0.297E-02
RMM:   4    -0.116360865709E+04    0.55019E-05   -0.50596E-05  3466   0.902E-03    0.173E-02
RMM:   5    -0.116360865826E+04   -0.11626E-05   -0.14782E-05  3321   0.563E-03    0.992E-03
RMM:   6    -0.116360865931E+04   -0.10493E-05   -0.71219E-06  2977   0.406E-03    0.537E-03
RMM:   7    -0.116360865999E+04   -0.68323E-06   -0.37797E-06  2285   0.314E-03    0.399E-03
RMM:   8    -0.116360866055E+04   -0.55843E-06   -0.24101E-06  1951   0.271E-03
  12 F= -.11636087E+04 E0= -.11636087E+04  d E =-.423771E-03  mag=     4.0000
       N       E                     dE             d eps       ncg     rms          rms(c)
DAV:   1    -0.116360855206E+04    0.10793E-03   -0.28979E-01  6320   0.614E-01    0.108E-01
RMM:   2    -0.116360918541E+04   -0.63335E-03   -0.68185E-03  6252   0.101E-01    0.622E-02
RMM:   3    -0.116360918095E+04    0.44655E-05   -0.31638E-04  4189   0.347E-02    0.403E-02
RMM:   4    -0.116360916940E+04    0.11548E-04   -0.75906E-05  3511   0.115E-02    0.225E-02
RMM:   5    -0.116360917080E+04   -0.14010E-05   -0.26516E-05  3406   0.757E-03    0.964E-03
RMM:   6    -0.116360917239E+04   -0.15897E-05   -0.11727E-05  3237   0.511E-03    0.597E-03
RMM:   7    -0.116360917326E+04   -0.86855E-06   -0.64185E-06  2723   0.390E-03    0.415E-03
RMM:   8    -0.116360917391E+04   -0.64970E-06   -0.40976E-06  2307   0.318E-03
  13 F= -.11636092E+04 E0= -.11636092E+04  d E =-.513359E-03  mag=     4.0000
       N       E                     dE             d eps       ncg     rms          rms(c)
DAV:   1    -0.116360926115E+04   -0.87891E-04   -0.78620E-02  6112   0.318E-01    0.580E-02
RMM:   2    -0.116360943275E+04   -0.17161E-03   -0.18621E-03  6048   0.529E-02    0.345E-02
RMM:   3    -0.116360943084E+04    0.19107E-05   -0.81052E-05  3501   0.188E-02    0.222E-02
RMM:   4    -0.116360942848E+04    0.23642E-05   -0.28422E-05  3367   0.658E-03    0.144E-02
RMM:   5    -0.116360942869E+04   -0.20998E-06   -0.82423E-06  2993   0.426E-03    0.752E-03
RMM:   6    -0.116360942925E+04   -0.55785E-06   -0.42005E-06  2443   0.316E-03    0.417E-03
RMM:   7    -0.116360942953E+04   -0.28228E-06   -0.19216E-06  1832   0.261E-03    0.250E-03
RMM:   8    -0.116360942975E+04   -0.22391E-06   -0.10472E-06  1428   0.225E-03
  14 F= -.11636094E+04 E0= -.11636094E+04  d E =-.255846E-03  mag=     4.0000
       N       E                     dE             d eps       ncg     rms          rms(c)
DAV:   1    -0.116360943736E+04   -0.78326E-05   -0.14711E-01  6160   0.435E-01    0.774E-02
RMM:   2    -0.116360975815E+04   -0.32079E-03   -0.34304E-03  6197   0.714E-02    0.443E-02
RMM:   3    -0.116360975546E+04    0.26918E-05   -0.15084E-04  3676   0.249E-02    0.284E-02
RMM:   4    -0.116360975067E+04    0.47852E-05   -0.43474E-05  3434   0.843E-03    0.166E-02
RMM:   5    -0.116360975124E+04   -0.56514E-06   -0.13377E-05  3267   0.528E-03    0.812E-03
RMM:   6    -0.116360975200E+04   -0.76319E-06   -0.60860E-06  2750   0.381E-03    0.466E-03
RMM:   7    -0.116360975240E+04   -0.39545E-06   -0.31038E-06  2164   0.291E-03    0.303E-03
RMM:   8    -0.116360975264E+04   -0.24434E-06   -0.17222E-06  1711   0.250E-03
  15 F= -.11636098E+04 E0= -.11636098E+04  d E =-.322890E-03  mag=     4.0000
       N       E                     dE             d eps       ncg     rms          rms(c)
DAV:   1    -0.116360982457E+04   -0.72169E-04   -0.32366E-02  6240   0.205E-01    0.349E-02
RMM:   2    -0.116360989176E+04   -0.67198E-04   -0.75734E-04  5396   0.339E-02    0.207E-02
RMM:   3    -0.116360989107E+04    0.69401E-06   -0.36700E-05  3358   0.126E-02    0.131E-02
RMM:   4    -0.116360989041E+04    0.66479E-06   -0.13497E-05  3177   0.460E-03    0.806E-03
RMM:   5    -0.116360989042E+04   -0.14028E-07   -0.33811E-06  2408   0.303E-03    0.404E-03
RMM:   6    -0.116360989061E+04   -0.18509E-06   -0.14888E-06  1567   0.234E-03    0.188E-03
RMM:   7    -0.116360989070E+04   -0.91954E-07   -0.60322E-07  1190   0.215E-03    0.116E-03
RMM:   8    -0.116360989076E+04   -0.61627E-07   -0.27768E-07   878   0.197E-03
  16 F= -.11636099E+04 E0= -.11636099E+04  d E =-.138117E-03  mag=     4.0000
