       N       E                     dE             d eps       ncg     rms          rms(c)
DAV:   1    -0.116340730319E+04   -0.11634E+04   -0.93915E-06  7584   0.716E-03    0.886E-03
RMM:   2    -0.116340730345E+04   -0.26466E-06   -0.66172E-06  6062   0.392E-03    0.128E-02
RMM:   3    -0.116340730339E+04    0.62355E-07   -0.22633E-06  4311   0.254E-03    0.284E-03
RMM:   4    -0.116340730349E+04   -0.99782E-07   -0.11263E-06  3035   0.232E-03    0.329E-03
RMM:   5    -0.116340730358E+04   -0.92055E-07   -0.71522E-07  2505   0.210E-03    0.144E-03
RMM:   6    -0.116340730367E+04   -0.90935E-07   -0.38336E-07  2044   0.206E-03    0.111E-03
RMM:   7    -0.116340730376E+04   -0.82146E-07   -0.25557E-07  1811   0.195E-03    0.107E-03
RMM:   8    -0.116340730383E+04   -0.77431E-07   -0.19473E-07  1450   0.194E-03
   1 F= -.11634073E+04 E0= -.11634066E+04  d E =-.116341E+04  mag=    -2.0082
       N       E                     dE             d eps       ncg     rms          rms(c)
DAV:   1    -0.116340744494E+04   -0.14118E-03   -0.17630E-01 12608   0.486E-01    0.139E-01
RMM:   2    -0.116340766874E+04   -0.22381E-03   -0.59172E-03 12252   0.977E-02    0.152E-01
RMM:   3    -0.116340759449E+04    0.74248E-04   -0.21988E-04  8540   0.296E-02    0.107E-01
RMM:   4    -0.116340752873E+04    0.65767E-04   -0.22682E-04  8552   0.169E-02    0.556E-02
RMM:   5    -0.116340750707E+04    0.21653E-04   -0.51915E-05  7219   0.108E-02    0.176E-02
RMM:   6    -0.116340750734E+04   -0.27053E-06   -0.15096E-05  6539   0.527E-03    0.145E-02
RMM:   7    -0.116340750774E+04   -0.39993E-06   -0.58682E-06  5772   0.387E-03    0.102E-02
RMM:   8    -0.116340750816E+04   -0.41434E-06   -0.37545E-06  5344   0.293E-03
   2 F= -.11634075E+04 E0= -.11634068E+04  d E =-.204324E-03  mag=    -2.0083
       N       E                     dE             d eps       ncg     rms          rms(c)
DAV:   1    -0.116340796517E+04   -0.45742E-03   -0.41162E-02 12240   0.231E-01    0.718E-02
RMM:   2    -0.116340797850E+04   -0.13330E-04   -0.15112E-03 11974   0.497E-02    0.820E-02
RMM:   3    -0.116340795336E+04    0.25134E-04   -0.58556E-05  6842   0.152E-02    0.574E-02
RMM:   4    -0.116340792950E+04    0.23863E-04   -0.66369E-05  7010   0.931E-03    0.366E-02
RMM:   5    -0.116340792289E+04    0.66132E-05   -0.18666E-05  6335   0.639E-03    0.157E-02
RMM:   6    -0.116340792258E+04    0.30588E-06   -0.64244E-06  5537   0.373E-03    0.118E-02
RMM:   7    -0.116340792266E+04   -0.81520E-07   -0.24915E-06  4252   0.287E-03    0.769E-03
RMM:   8    -0.116340792276E+04   -0.99535E-07   -0.12474E-06  3210   0.215E-03
   3 F= -.11634079E+04 E0= -.11634072E+04  d E =-.414606E-03  mag=    -2.0085
