       N       E                     dE             d eps       ncg     rms          rms(c)
DAV:   1     0.121044474076E+05    0.12104E+05   -0.42635E+05 12344   0.132E+03
DAV:   2     0.718127650697E+03   -0.11386E+05   -0.10175E+05 12296   0.380E+02
DAV:   3    -0.134858143625E+04   -0.20667E+04   -0.19887E+04 13216   0.168E+02
DAV:   4    -0.149083659508E+04   -0.14226E+03   -0.13979E+03 16216   0.470E+01
DAV:   5    -0.150030637763E+04   -0.94698E+01   -0.94210E+01 22184   0.112E+01    0.182E+02
RMM:   6    -0.116119781169E+04    0.33911E+03   -0.16448E+03 12533   0.362E+01    0.132E+02
RMM:   7    -0.114396182346E+04    0.17236E+02   -0.65794E+01 12801   0.127E+01    0.768E+01
RMM:   8    -0.114765710560E+04   -0.36953E+01   -0.22488E+01 14453   0.521E+00    0.376E+01
RMM:   9    -0.115211500453E+04   -0.44579E+01   -0.71814E+00 13160   0.318E+00    0.114E+01
RMM:  10    -0.115365332999E+04   -0.15383E+01   -0.18902E+00 14352   0.145E+00    0.764E+00
RMM:  11    -0.115449376927E+04   -0.84044E+00   -0.81079E-01 16201   0.805E-01    0.472E+00
RMM:  12    -0.115542655266E+04   -0.93278E+00   -0.73621E-01 13612   0.754E-01    0.265E+00
RMM:  13    -0.115577901316E+04   -0.35246E+00   -0.33749E-01 14250   0.569E-01    0.146E+00
RMM:  14    -0.115585756018E+04   -0.78547E-01   -0.13834E-01 15163   0.343E-01    0.735E-01
RMM:  15    -0.115587160366E+04   -0.14043E-01   -0.47309E-02 15312   0.191E-01    0.431E-01
RMM:  16    -0.115587367721E+04   -0.20736E-02   -0.11722E-02 17345   0.924E-02    0.240E-01
RMM:  17    -0.115587435106E+04   -0.67385E-03   -0.44896E-03 15572   0.508E-02    0.996E-02
RMM:  18    -0.115587453625E+04   -0.18519E-03   -0.17094E-03 12356   0.288E-02    0.600E-02
RMM:  19    -0.115587467406E+04   -0.13781E-03   -0.96092E-04 10600   0.201E-02    0.351E-02
RMM:  20    -0.115587477118E+04   -0.97121E-04   -0.58704E-04  9986   0.164E-02
   1 F= -.11558748E+04 E0= -.11558748E+04  d E =-.115587E+04  mag=    13.9991
       N       E                     dE             d eps       ncg     rms          rms(c)
DAV:   1    -0.113229145796E+04    0.23583E+02   -0.87394E+02 14352   0.256E+01    0.244E+01
RMM:   2    -0.115481515813E+04   -0.22524E+02   -0.60251E+01 13045   0.758E+00    0.249E+01
RMM:   3    -0.115568747564E+04   -0.87232E+00   -0.35126E+00 13110   0.242E+00    0.101E+01
RMM:   4    -0.115561844752E+04    0.69028E-01   -0.10979E+00 13673   0.100E+00    0.105E+01
RMM:   5    -0.115558527461E+04    0.33173E-01   -0.17555E-01 14983   0.315E-01    0.595E+00
RMM:   6    -0.115556612115E+04    0.19153E-01   -0.21945E-01 12943   0.462E-01    0.334E+00
RMM:   7    -0.115556832578E+04   -0.22046E-02   -0.27765E-02 15114   0.154E-01    0.688E-01
RMM:   8    -0.115556837380E+04   -0.48018E-04   -0.69176E-03 16810   0.569E-02    0.620E-01
RMM:   9    -0.115556852475E+04   -0.15095E-03   -0.23979E-03 13653   0.402E-02    0.119E-01
RMM:  10    -0.115556863851E+04   -0.11377E-03   -0.11054E-03 11879   0.240E-02    0.851E-02
RMM:  11    -0.115556870354E+04   -0.65030E-04   -0.51174E-04  8968   0.161E-02
   2 F= -.11555687E+04 E0= -.11555687E+04  d E =0.306068E+00  mag=    14.0000
       N       E                     dE             d eps       ncg     rms          rms(c)
DAV:   1    -0.115450372592E+04    0.10649E+01   -0.15221E+02 13512   0.106E+01    0.989E+00
RMM:   2    -0.115638926432E+04   -0.18855E+01   -0.54303E+00 12387   0.254E+00    0.997E+00
RMM:   3    -0.115650444295E+04   -0.11518E+00   -0.37670E-01 12541   0.949E-01    0.368E+00
RMM:   4    -0.115647600657E+04    0.28436E-01   -0.11963E-01 13629   0.326E-01    0.226E+00
RMM:   5    -0.115645436659E+04    0.21640E-01   -0.59436E-02 13071   0.243E-01    0.125E+00
RMM:   6    -0.115645393164E+04    0.43495E-03   -0.18145E-02 13582   0.119E-01    0.522E-01
RMM:   7    -0.115645380570E+04    0.12594E-03   -0.21068E-03 14268   0.435E-02    0.295E-01
RMM:   8    -0.115645380110E+04    0.45988E-05   -0.68142E-04 12317   0.244E-02
   3 F= -.11564538E+04 E0= -.11564538E+04  d E =-.885098E+00  mag=    14.0000
       N       E                     dE             d eps       ncg     rms          rms(c)
DAV:   1    -0.115646609209E+04   -0.12286E-01   -0.22529E+01 13720   0.450E+00    0.319E+00
RMM:   2    -0.115659297593E+04   -0.12688E+00   -0.61376E-01 12326   0.921E-01    0.223E+00
RMM:   3    -0.115660824793E+04   -0.15272E-01   -0.35596E-02 12628   0.299E-01    0.108E+00
RMM:   4    -0.115660441138E+04    0.38366E-02   -0.11866E-02 13118   0.110E-01    0.654E-01
RMM:   5    -0.115660361706E+04    0.79432E-03   -0.35590E-03 12339   0.634E-02    0.191E-01
RMM:   6    -0.115660365223E+04   -0.35165E-04   -0.58908E-04 10851   0.237E-02    0.108E-01
RMM:   7    -0.115660366419E+04   -0.11967E-04   -0.14509E-04  8297   0.140E-02    0.779E-02
RMM:   8    -0.115660368940E+04   -0.25205E-04   -0.95505E-05  7878   0.120E-02
   4 F= -.11566037E+04 E0= -.11566037E+04  d E =-.149888E+00  mag=    14.0000
       N       E                     dE             d eps       ncg     rms          rms(c)
DAV:   1    -0.115655428462E+04    0.49380E-01   -0.18878E+01 12984   0.423E+00    0.289E+00
RMM:   2    -0.115665982384E+04   -0.10554E+00   -0.46857E-01 12495   0.812E-01    0.188E+00
RMM:   3    -0.115667314481E+04   -0.13321E-01   -0.26081E-02 12924   0.259E-01    0.998E-01
RMM:   4    -0.115667090064E+04    0.22442E-02   -0.10676E-02 13391   0.103E-01    0.542E-01
RMM:   5    -0.115667077472E+04    0.12592E-03   -0.25252E-03 12343   0.483E-02    0.229E-01
RMM:   6    -0.115667077909E+04   -0.43692E-05   -0.32492E-04  9138   0.187E-02    0.926E-02
RMM:   7    -0.115667078413E+04   -0.50364E-05   -0.17227E-04  8036   0.151E-02    0.845E-02
RMM:   8    -0.115667080510E+04   -0.20974E-04   -0.94491E-05  7549   0.133E-02
   5 F= -.11566708E+04 E0= -.11566708E+04  d E =-.671157E-01  mag=    14.0000
       N       E                     dE             d eps       ncg     rms          rms(c)
DAV:   1    -0.115666648729E+04    0.42968E-02   -0.12327E+01 12848   0.386E+00    0.124E+00
RMM:   2    -0.115670249304E+04   -0.36006E-01   -0.28990E-01 12629   0.677E-01    0.789E-01
RMM:   3    -0.115670467867E+04   -0.21856E-02   -0.15984E-02 13013   0.218E-01    0.429E-01
RMM:   4    -0.115670371129E+04    0.96738E-03   -0.45491E-03 14152   0.717E-02    0.204E-01
RMM:   5    -0.115670362411E+04    0.87184E-04   -0.12073E-03 12324   0.355E-02    0.772E-02
RMM:   6    -0.115670363830E+04   -0.14187E-04   -0.17187E-04  8570   0.158E-02    0.402E-02
RMM:   7    -0.115670365433E+04   -0.16034E-04   -0.93798E-05  7607   0.112E-02    0.309E-02
RMM:   8    -0.115670367274E+04   -0.18410E-04   -0.60454E-05  7337   0.980E-03
   6 F= -.11567037E+04 E0= -.11567037E+04  d E =-.328676E-01  mag=    14.0000
       N       E                     dE             d eps       ncg     rms          rms(c)
DAV:   1    -0.115669470713E+04    0.89472E-02   -0.16146E+01 12704   0.444E+00    0.104E+00
RMM:   2    -0.115673388610E+04   -0.39179E-01   -0.38369E-01 12580   0.784E-01    0.695E-01
RMM:   3    -0.115673519720E+04   -0.13111E-02   -0.22725E-02 13313   0.245E-01    0.450E-01
RMM:   4    -0.115673428225E+04    0.91496E-03   -0.42882E-03 15611   0.712E-02    0.261E-01
RMM:   5    -0.115673400693E+04    0.27531E-03   -0.20495E-03 13013   0.403E-02    0.780E-02
RMM:   6    -0.115673402933E+04   -0.22396E-04   -0.26266E-04  9358   0.203E-02    0.536E-02
RMM:   7    -0.115673404255E+04   -0.13220E-04   -0.10021E-04  7811   0.111E-02    0.304E-02
RMM:   8    -0.115673405676E+04   -0.14210E-04   -0.85038E-05  7480   0.110E-02
   7 F= -.11567341E+04 E0= -.11567341E+04  d E =-.303840E-01  mag=    14.0000
       N       E                     dE             d eps       ncg     rms          rms(c)
DAV:   1    -0.115673067170E+04    0.33708E-02   -0.92990E+00 12760   0.340E+00    0.724E-01
RMM:   2    -0.115675237946E+04   -0.21708E-01   -0.22284E-01 12672   0.588E-01    0.483E-01
RMM:   3    -0.115675264476E+04   -0.26530E-03   -0.11997E-02 13237   0.183E-01    0.323E-01
RMM:   4    -0.115675213558E+04    0.50918E-03   -0.25253E-03 14903   0.551E-02    0.181E-01
RMM:   5    -0.115675205096E+04    0.84614E-04   -0.97811E-04 12396   0.301E-02    0.483E-02
RMM:   6    -0.115675206807E+04   -0.17110E-04   -0.15202E-04  7976   0.154E-02    0.422E-02
RMM:   7    -0.115675207768E+04   -0.96103E-05   -0.72695E-05  7322   0.101E-02    0.239E-02
RMM:   8    -0.115675208795E+04   -0.10270E-04   -0.55890E-05  7195   0.995E-03
   8 F= -.11567521E+04 E0= -.11567521E+04  d E =-.180312E-01  mag=    14.0000
       N       E                     dE             d eps       ncg     rms          rms(c)
DAV:   1    -0.115674858784E+04    0.34898E-02   -0.72905E+00 12720   0.303E+00    0.572E-01
RMM:   2    -0.115676522122E+04   -0.16633E-01   -0.17398E-01 12642   0.516E-01    0.374E-01
RMM:   3    -0.115676526594E+04   -0.44720E-04   -0.87513E-03 12982   0.165E-01    0.245E-01
RMM:   4    -0.115676489715E+04    0.36878E-03   -0.21382E-03 14579   0.501E-02    0.135E-01
RMM:   5    -0.115676484860E+04    0.48553E-04   -0.72738E-04 12077   0.263E-02    0.455E-02
RMM:   6    -0.115676485732E+04   -0.87187E-05   -0.10866E-04  7589   0.139E-02    0.313E-02
RMM:   7    -0.115676486538E+04   -0.80641E-05   -0.59614E-05  7223   0.960E-03    0.187E-02
RMM:   8    -0.115676487411E+04   -0.87284E-05   -0.46705E-05  7084   0.904E-03
   9 F= -.11567649E+04 E0= -.11567649E+04  d E =-.127862E-01  mag=    14.0000
       N       E                     dE             d eps       ncg     rms          rms(c)
DAV:   1    -0.115675914266E+04    0.57227E-02   -0.72867E+00 12704   0.304E+00    0.575E-01
RMM:   2    -0.115677592932E+04   -0.16787E-01   -0.17349E-01 12718   0.510E-01    0.353E-01
RMM:   3    -0.115677593913E+04   -0.98196E-05   -0.83452E-03 13020   0.164E-01    0.224E-01
RMM:   4    -0.115677558803E+04    0.35111E-03   -0.21101E-03 14594   0.499E-02    0.112E-01
RMM:   5    -0.115677557589E+04    0.12135E-04   -0.60373E-04 11504   0.245E-02    0.368E-02
RMM:   6    -0.115677558417E+04   -0.82773E-05   -0.91398E-05  7525   0.135E-02    0.256E-02
RMM:   7    -0.115677559220E+04   -0.80331E-05   -0.61450E-05  7300   0.989E-03    0.161E-02
RMM:   8    -0.115677559988E+04   -0.76833E-05   -0.47638E-05  7090   0.883E-03
  10 F= -.11567756E+04 E0= -.11567756E+04  d E =-.107258E-01  mag=    14.0000
       N       E                     dE             d eps       ncg     rms          rms(c)
DAV:   1    -0.115677069906E+04    0.48931E-02   -0.58351E+00 12736   0.273E+00    0.504E-01
RMM:   2    -0.115678410543E+04   -0.13406E-01   -0.13962E-01 12714   0.458E-01    0.312E-01
RMM:   3    -0.115678408472E+04    0.20711E-04   -0.66943E-03 13009   0.147E-01    0.199E-01
RMM:   4    -0.115678380911E+04    0.27561E-03   -0.16928E-03 14240   0.448E-02    0.101E-01
RMM:   5    -0.115678380038E+04    0.87349E-05   -0.47646E-04 10881   0.225E-02    0.325E-02
RMM:   6    -0.115678380718E+04   -0.68019E-05   -0.73822E-05  7385   0.129E-02    0.207E-02
RMM:   7    -0.115678381459E+04   -0.74136E-05   -0.60615E-05  7219   0.954E-03    0.137E-02
RMM:   8    -0.115678382071E+04   -0.61168E-05   -0.41608E-05  6981   0.839E-03
  11 F= -.11567838E+04 E0= -.11567838E+04  d E =-.822082E-02  mag=    14.0000
       N       E                     dE             d eps       ncg     rms          rms(c)
DAV:   1    -0.115677953147E+04    0.42831E-02   -0.48268E+00 12712   0.249E+00    0.452E-01
RMM:   2    -0.115679061716E+04   -0.11086E-01   -0.11586E-01 12651   0.417E-01    0.274E-01
RMM:   3    -0.115679060834E+04    0.88167E-05   -0.56440E-03 12859   0.138E-01    0.175E-01
RMM:   4    -0.115679038976E+04    0.21858E-03   -0.14184E-03 13947   0.411E-02    0.872E-02
RMM:   5    -0.115679038970E+04    0.63839E-07   -0.37148E-04 10087   0.205E-02    0.306E-02
RMM:   6    -0.115679039623E+04   -0.65356E-05   -0.63651E-05  7286   0.125E-02    0.183E-02
RMM:   7    -0.115679040318E+04   -0.69420E-05   -0.57862E-05  7126   0.932E-03    0.119E-02
RMM:   8    -0.115679040833E+04   -0.51565E-05   -0.38413E-05  6876   0.812E-03
  12 F= -.11567904E+04 E0= -.11567904E+04  d E =-.658762E-02  mag=    14.0000
       N       E                     dE             d eps       ncg     rms          rms(c)
DAV:   1    -0.115678674583E+04    0.36573E-02   -0.37864E+00 12784   0.221E+00    0.400E-01
RMM:   2    -0.115679544056E+04   -0.86947E-02   -0.90807E-02 12704   0.369E-01    0.244E-01
RMM:   3    -0.115679541212E+04    0.28437E-04   -0.43619E-03 12884   0.120E-01    0.156E-01
RMM:   4    -0.115679523929E+04    0.17283E-03   -0.10845E-03 13321   0.362E-02    0.779E-02
RMM:   5    -0.115679523615E+04    0.31377E-05   -0.29247E-04  9287   0.193E-02    0.295E-02
RMM:   6    -0.115679524164E+04   -0.54866E-05   -0.53430E-05  7181   0.119E-02    0.171E-02
RMM:   7    -0.115679524727E+04   -0.56312E-05   -0.47895E-05  7013   0.868E-03    0.109E-02
RMM:   8    -0.115679525119E+04   -0.39203E-05   -0.31413E-05  6822   0.780E-03
  13 F= -.11567953E+04 E0= -.11567953E+04  d E =-.484286E-02  mag=    14.0000
       N       E                     dE             d eps       ncg     rms          rms(c)
DAV:   1    -0.115679176622E+04    0.34811E-02   -0.32987E+00 12736   0.206E+00    0.374E-01
RMM:   2    -0.115679940432E+04   -0.76381E-02   -0.79141E-02 12697   0.344E-01    0.225E-01
RMM:   3    -0.115679939811E+04    0.62063E-05   -0.38165E-03 12824   0.112E-01    0.142E-01
RMM:   4    -0.115679924912E+04    0.14899E-03   -0.93253E-04 12959   0.337E-02    0.703E-02
RMM:   5    -0.115679925043E+04   -0.13113E-05   -0.23918E-04  8613   0.182E-02    0.211E-02
RMM:   6    -0.115679925602E+04   -0.55876E-05   -0.46876E-05  7139   0.114E-02    0.139E-02
RMM:   7    -0.115679926114E+04   -0.51172E-05   -0.44259E-05  6935   0.835E-03    0.998E-03
RMM:   8    -0.115679926471E+04   -0.35760E-05   -0.28392E-05  6788   0.745E-03
  14 F= -.11567993E+04 E0= -.11567993E+04  d E =-.401352E-02  mag=    14.0000
       N       E                     dE             d eps       ncg     rms          rms(c)
DAV:   1    -0.115679819304E+04    0.10681E-02   -0.16015E+00 12960   0.144E+00    0.265E-01
RMM:   2    -0.115680192929E+04   -0.37362E-02   -0.38737E-02 12784   0.241E-01    0.161E-01
RMM:   3    -0.115680191262E+04    0.16668E-04   -0.18333E-03 12375   0.768E-02    0.102E-01
RMM:   4    -0.115680183849E+04    0.74130E-04   -0.43699E-04 10284   0.238E-02    0.511E-02
RMM:   5    -0.115680183685E+04    0.16396E-05   -0.11449E-04  7259   0.150E-02    0.179E-02
RMM:   6    -0.115680184169E+04   -0.48381E-05   -0.38322E-05  7007   0.950E-03    0.165E-02
RMM:   7    -0.115680184457E+04   -0.28790E-05   -0.24357E-05  6744   0.676E-03    0.855E-03
RMM:   8    -0.115680184673E+04   -0.21577E-05   -0.16360E-05  6573   0.601E-03
  15 F= -.11568018E+04 E0= -.11568018E+04  d E =-.258201E-02  mag=    14.0000
       N       E                     dE             d eps       ncg     rms          rms(c)
DAV:   1    -0.115680002645E+04    0.18181E-02   -0.18799E+00 12728   0.156E+00    0.284E-01
RMM:   2    -0.115680438655E+04   -0.43601E-02   -0.44975E-02 12683   0.259E-01    0.171E-01
RMM:   3    -0.115680438859E+04   -0.20401E-05   -0.21671E-03 12377   0.851E-02    0.107E-01
RMM:   4    -0.115680430609E+04    0.82502E-04   -0.52297E-04 10784   0.255E-02    0.538E-02
RMM:   5    -0.115680430408E+04    0.20063E-05   -0.12662E-04  7319   0.155E-02    0.218E-02
RMM:   6    -0.115680430932E+04   -0.52368E-05   -0.40842E-05  7013   0.989E-03    0.137E-02
RMM:   7    -0.115680431252E+04   -0.32072E-05   -0.26686E-05  6760   0.692E-03    0.911E-03
RMM:   8    -0.115680431458E+04   -0.20597E-05   -0.16897E-05  6580   0.619E-03
  16 F= -.11568043E+04 E0= -.11568043E+04  d E =-.246786E-02  mag=    14.0000
       N       E                     dE             d eps       ncg     rms          rms(c)
DAV:   1    -0.115680315390E+04    0.11586E-02   -0.13603E+00 12768   0.133E+00    0.236E-01
RMM:   2    -0.115680630559E+04   -0.31517E-02   -0.32713E-02 12739   0.221E-01    0.143E-01
RMM:   3    -0.115680629317E+04    0.12415E-04   -0.15496E-03 11950   0.717E-02    0.904E-02
RMM:   4    -0.115680623335E+04    0.59826E-04   -0.37628E-04  9551   0.222E-02    0.440E-02
RMM:   5    -0.115680623522E+04   -0.18666E-05   -0.89140E-05  7156   0.138E-02    0.149E-02
RMM:   6    -0.115680623957E+04   -0.43540E-05   -0.33429E-05  6980   0.858E-03    0.119E-02
RMM:   7    -0.115680624203E+04   -0.24594E-05   -0.20853E-05  6656   0.634E-03    0.759E-03
RMM:   8    -0.115680624375E+04   -0.17254E-05   -0.13730E-05  6404   0.536E-03
  17 F= -.11568062E+04 E0= -.11568062E+04  d E =-.192917E-02  mag=    14.0000
       N       E                     dE             d eps       ncg     rms          rms(c)
DAV:   1    -0.115680455359E+04    0.16884E-02   -0.15482E+00 12736   0.141E+00    0.253E-01
RMM:   2    -0.115680812790E+04   -0.35743E-02   -0.36992E-02 12700   0.234E-01    0.153E-01
RMM:   3    -0.115680811894E+04    0.89554E-05   -0.17616E-03 12110   0.768E-02    0.968E-02
RMM:   4    -0.115680805180E+04    0.67148E-04   -0.42313E-04  9938   0.233E-02    0.474E-02
RMM:   5    -0.115680805283E+04   -0.10310E-05   -0.10012E-04  7192   0.143E-02    0.189E-02
RMM:   6    -0.115680805745E+04   -0.46237E-05   -0.35930E-05  6988   0.905E-03    0.133E-02
RMM:   7    -0.115680806009E+04   -0.26399E-05   -0.22439E-05  6710   0.651E-03    0.815E-03
RMM:   8    -0.115680806171E+04   -0.16179E-05   -0.14457E-05  6442   0.564E-03
  18 F= -.11568081E+04 E0= -.11568081E+04  d E =-.181796E-02  mag=    14.0000
       N       E                     dE             d eps       ncg     rms          rms(c)
DAV:   1    -0.115680738524E+04    0.67485E-03   -0.85733E-01 12720   0.105E+00    0.186E-01
RMM:   2    -0.115680936336E+04   -0.19781E-02   -0.20593E-02 12734   0.174E-01    0.115E-01
RMM:   3    -0.115680934668E+04    0.16682E-04   -0.95142E-04 11004   0.564E-02    0.721E-02
RMM:   4    -0.115680930761E+04    0.39071E-04   -0.22357E-04  7905   0.180E-02    0.356E-02
RMM:   5    -0.115680931053E+04   -0.29190E-05   -0.63577E-05  7072   0.116E-02    0.992E-03
RMM:   6    -0.115680931379E+04   -0.32613E-05   -0.25541E-05  6855   0.723E-03    0.822E-03
RMM:   7    -0.115680931542E+04   -0.16312E-05   -0.15152E-05  6526   0.551E-03    0.573E-03
RMM:   8    -0.115680931661E+04   -0.11894E-05   -0.10051E-05  5936   0.443E-03
  19 F= -.11568093E+04 E0= -.11568093E+04  d E =-.125490E-02  mag=    14.0000
       N       E                     dE             d eps       ncg     rms          rms(c)
DAV:   1    -0.115680853048E+04    0.78494E-03   -0.83359E-01 12704   0.104E+00    0.182E-01
RMM:   2    -0.115681044337E+04   -0.19129E-02   -0.19874E-02 12652   0.171E-01    0.111E-01
RMM:   3    -0.115681043061E+04    0.12759E-04   -0.92302E-04 10968   0.562E-02    0.703E-02
RMM:   4    -0.115681039287E+04    0.37747E-04   -0.21228E-04  7788   0.176E-02    0.340E-02
RMM:   5    -0.115681039658E+04   -0.37134E-05   -0.59586E-05  7062   0.113E-02    0.126E-02
RMM:   6    -0.115681039958E+04   -0.29989E-05   -0.24465E-05  6847   0.702E-03    0.943E-03
RMM:   7    -0.115681040122E+04   -0.16385E-05   -0.14460E-05  6409   0.537E-03    0.558E-03
RMM:   8    -0.115681040230E+04   -0.10853E-05   -0.96173E-06  5761   0.433E-03
  20 F= -.11568104E+04 E0= -.11568104E+04  d E =-.108569E-02  mag=    14.0000
       N       E                     dE             d eps       ncg     rms          rms(c)
DAV:   1    -0.115681029663E+04    0.10459E-03   -0.39808E-01 12720   0.717E-01    0.126E-01
RMM:   2    -0.115681121234E+04   -0.91571E-03   -0.95106E-03 12574   0.118E-01    0.785E-02
RMM:   3    -0.115681120161E+04    0.10728E-04   -0.41515E-04  8959   0.385E-02    0.497E-02
RMM:   4    -0.115681118338E+04    0.18231E-04   -0.10022E-04  7099   0.131E-02    0.235E-02
RMM:   5    -0.115681118663E+04   -0.32566E-05   -0.34208E-05  6905   0.839E-03    0.104E-02
RMM:   6    -0.115681118846E+04   -0.18311E-05   -0.15161E-05  6562   0.551E-03    0.684E-03
RMM:   7    -0.115681118947E+04   -0.10045E-05   -0.89520E-06  5653   0.428E-03    0.408E-03
RMM:   8    -0.115681119008E+04   -0.61285E-06   -0.56002E-06  4858   0.355E-03
  21 F= -.11568112E+04 E0= -.11568112E+04  d E =-.787778E-03  mag=    14.0000
