       N       E                     dE             d eps       ncg     rms          rms(c)
DAV:   1    -0.116300767242E+04   -0.11630E+04   -0.34799E-05  8432   0.151E-02    0.186E-02
RMM:   2    -0.116300771678E+04   -0.44357E-04   -0.38475E-05  6580   0.859E-03    0.232E-02
RMM:   3    -0.116300772881E+04   -0.12034E-04   -0.13972E-05  5790   0.408E-03    0.196E-02
RMM:   4    -0.116300772565E+04    0.31672E-05   -0.48679E-06  5058   0.370E-03    0.198E-02
RMM:   5    -0.116300772482E+04    0.82274E-06   -0.21517E-06  3437   0.244E-03    0.202E-02
RMM:   6    -0.116300772277E+04    0.20576E-05   -0.11354E-06  3023   0.248E-03    0.196E-02
RMM:   7    -0.116300769300E+04    0.29770E-04   -0.67059E-06  4705   0.382E-03    0.266E-02
RMM:   8    -0.116300767657E+04    0.16425E-04   -0.33603E-06  3083   0.246E-03
   1 F= -.11630077E+04 E0= -.11630061E+04  d E =-.116301E+04  mag=     4.0351
       N       E                     dE             d eps       ncg     rms          rms(c)
DAV:   1    -0.116300732803E+04    0.36496E-03   -0.30229E+00 12688   0.198E+00    0.738E-01
RMM:   2    -0.116301672541E+04   -0.93974E-02   -0.96090E-02 12293   0.397E-01    0.747E-01
RMM:   3    -0.116301631057E+04    0.41485E-03   -0.44623E-03 12498   0.121E-01    0.489E-01
RMM:   4    -0.116301605291E+04    0.25765E-03   -0.24547E-03 12220   0.552E-02    0.235E-01
RMM:   5    -0.116301582843E+04    0.22449E-03   -0.65289E-04 10688   0.338E-02    0.596E-02
RMM:   6    -0.116301583905E+04   -0.10620E-04   -0.89980E-05  7607   0.131E-02    0.347E-02
RMM:   7    -0.116301588205E+04   -0.43008E-04   -0.49651E-05  7241   0.874E-03    0.280E-02
RMM:   8    -0.116301593167E+04   -0.49615E-04   -0.37443E-05  7074   0.857E-03
   2 F= -.11630159E+04 E0= -.11630143E+04  d E =-.825510E-02  mag=     4.0359
       N       E                     dE             d eps       ncg     rms          rms(c)
DAV:   1    -0.116301773589E+04   -0.18538E-02   -0.70546E-01 12720   0.920E-01    0.373E-01
RMM:   2    -0.116301950253E+04   -0.17666E-02   -0.25387E-02 12289   0.190E-01    0.431E-01
RMM:   3    -0.116301924782E+04    0.25471E-03   -0.10270E-03 11648   0.546E-02    0.321E-01
RMM:   4    -0.116301922547E+04    0.22347E-04   -0.10470E-03 10866   0.345E-02    0.145E-01
RMM:   5    -0.116301914073E+04    0.84739E-04   -0.28326E-04  9278   0.230E-02    0.487E-02
RMM:   6    -0.116301915496E+04   -0.14228E-04   -0.53307E-05  7165   0.102E-02    0.322E-02
RMM:   7    -0.116301918825E+04   -0.33294E-04   -0.29971E-05  6837   0.692E-03    0.294E-02
RMM:   8    -0.116301923579E+04   -0.47534E-04   -0.29476E-05  6816   0.703E-03
   3 F= -.11630192E+04 E0= -.11630177E+04  d E =-.330412E-02  mag=     4.0345
       N       E                     dE             d eps       ncg     rms          rms(c)
DAV:   1    -0.116302033821E+04   -0.11500E-02   -0.41426E-01 12728   0.734E-01    0.261E-01
RMM:   2    -0.116302165384E+04   -0.13156E-02   -0.11427E-02 12423   0.136E-01    0.195E-01
RMM:   3    -0.116302170807E+04   -0.54235E-04   -0.62258E-04 10820   0.474E-02    0.118E-01
RMM:   4    -0.116302174053E+04   -0.32462E-04   -0.27339E-04  8596   0.205E-02    0.606E-02
RMM:   5    -0.116302179794E+04   -0.57411E-04   -0.10149E-04  7359   0.136E-02    0.303E-02
RMM:   6    -0.116302182564E+04   -0.27694E-04   -0.33394E-05  6954   0.794E-03    0.255E-02
RMM:   7    -0.116302186923E+04   -0.43590E-04   -0.26951E-05  6744   0.632E-03    0.238E-02
RMM:   8    -0.116302193851E+04   -0.69278E-04   -0.43769E-05  6698   0.709E-03
   4 F= -.11630219E+04 E0= -.11630204E+04  d E =-.270272E-02  mag=     4.0345
       N       E                     dE             d eps       ncg     rms          rms(c)
DAV:   1    -0.116302138866E+04    0.48057E-03   -0.78066E-01 12640   0.101E+00    0.333E-01
RMM:   2    -0.116302403768E+04   -0.26490E-02   -0.19501E-02 12683   0.178E-01    0.197E-01
RMM:   3    -0.116302422367E+04   -0.18599E-03   -0.10527E-03 11905   0.611E-02    0.107E-01
RMM:   4    -0.116302425522E+04   -0.31552E-04   -0.24934E-04  7942   0.218E-02    0.549E-02
RMM:   5    -0.116302433602E+04   -0.80800E-04   -0.14633E-04  7354   0.149E-02    0.299E-02
RMM:   6    -0.116302437110E+04   -0.35081E-04   -0.45188E-05  7048   0.999E-03    0.265E-02
RMM:   7    -0.116302441381E+04   -0.42710E-04   -0.33500E-05  6909   0.706E-03    0.250E-02
RMM:   8    -0.116302449541E+04   -0.81599E-04   -0.52947E-05  6879   0.843E-03
   5 F= -.11630245E+04 E0= -.11630229E+04  d E =-.255691E-02  mag=     4.0341
       N       E                     dE             d eps       ncg     rms          rms(c)
DAV:   1    -0.116302395359E+04    0.46022E-03   -0.65588E-01 12616   0.929E-01    0.286E-01
RMM:   2    -0.116302605179E+04   -0.20982E-02   -0.16314E-02 12786   0.161E-01    0.166E-01
RMM:   3    -0.116302618362E+04   -0.13183E-03   -0.83804E-04 11290   0.538E-02    0.925E-02
RMM:   4    -0.116302622263E+04   -0.39017E-04   -0.21246E-04  7634   0.200E-02    0.470E-02
RMM:   5    -0.116302630495E+04   -0.82314E-04   -0.12677E-04  7266   0.135E-02    0.282E-02
RMM:   6    -0.116302634219E+04   -0.37241E-04   -0.42725E-05  7034   0.922E-03    0.256E-02
RMM:   7    -0.116302639367E+04   -0.51479E-04   -0.37020E-05  6897   0.744E-03    0.248E-02
RMM:   8    -0.116302647586E+04   -0.82193E-04   -0.55888E-05  6826   0.832E-03
   6 F= -.11630265E+04 E0= -.11630249E+04  d E =-.198045E-02  mag=     4.0341
       N       E                     dE             d eps       ncg     rms          rms(c)
DAV:   1    -0.116302600934E+04    0.38433E-03   -0.54553E-01 12688   0.850E-01    0.245E-01
RMM:   2    -0.116302765696E+04   -0.16476E-02   -0.13516E-02 12779   0.146E-01    0.146E-01
RMM:   3    -0.116302775066E+04   -0.93696E-04   -0.68931E-04 10566   0.490E-02    0.842E-02
RMM:   4    -0.116302779093E+04   -0.40266E-04   -0.19378E-04  7434   0.182E-02    0.443E-02
RMM:   5    -0.116302786774E+04   -0.76817E-04   -0.10428E-04  7219   0.124E-02    0.264E-02
RMM:   6    -0.116302790563E+04   -0.37888E-04   -0.39034E-05  6989   0.871E-03    0.248E-02
RMM:   7    -0.116302795189E+04   -0.46255E-04   -0.32802E-05  6829   0.695E-03    0.239E-02
RMM:   8    -0.116302805372E+04   -0.10184E-03   -0.81444E-05  6906   0.993E-03    0.222E-02
RMM:   9    -0.116302816225E+04   -0.10853E-03   -0.12081E-04  6900   0.996E-03    0.209E-02
RMM:  10    -0.116302826583E+04   -0.10357E-03   -0.13016E-04  6773   0.969E-03    0.201E-02
RMM:  11    -0.116302850093E+04   -0.23510E-03   -0.70686E-04  8079   0.258E-02    0.184E-02
RMM:  12    -0.116302865521E+04   -0.15428E-03   -0.53317E-04  7564   0.205E-02    0.167E-02
RMM:  13    -0.116302876899E+04   -0.11378E-03   -0.36293E-04  7370   0.164E-02    0.155E-02
RMM:  14    -0.116302886797E+04   -0.98983E-04   -0.31106E-04  7144   0.150E-02
   7 F= -.11630289E+04 E0= -.11630273E+04  d E =-.239211E-02  mag=     4.0335
       N       E                     dE             d eps       ncg     rms          rms(c)
DAV:   1    -0.116302901107E+04   -0.24208E-03   -0.21699E-01 12952   0.532E-01    0.169E-01
RMM:   2    -0.116302976066E+04   -0.74959E-03   -0.54796E-03 12424   0.949E-02    0.970E-02
RMM:   3    -0.116302981284E+04   -0.52177E-04   -0.26887E-04  8188   0.334E-02    0.527E-02
RMM:   4    -0.116302982456E+04   -0.11721E-04   -0.79703E-05  7157   0.122E-02    0.275E-02
RMM:   5    -0.116302984692E+04   -0.22362E-04   -0.37151E-05  6970   0.777E-03    0.175E-02
RMM:   6    -0.116302985800E+04   -0.11083E-04   -0.14324E-05  6673   0.559E-03    0.148E-02
RMM:   7    -0.116302986816E+04   -0.10160E-04   -0.91710E-06  5789   0.400E-03    0.146E-02
RMM:   8    -0.116302988041E+04   -0.12249E-04   -0.77504E-06  5261   0.366E-03
   8 F= -.11630299E+04 E0= -.11630284E+04  d E =-.101244E-02  mag=     4.0334
       N       E                     dE             d eps       ncg     rms          rms(c)
DAV:   1    -0.116303003999E+04   -0.17183E-03   -0.64837E-02 12656   0.288E-01    0.900E-02
RMM:   2    -0.116303026211E+04   -0.22211E-03   -0.16469E-03 12178   0.519E-02    0.545E-02
RMM:   3    -0.116303028195E+04   -0.19842E-04   -0.80254E-05  7084   0.187E-02    0.328E-02
RMM:   4    -0.116303030080E+04   -0.18848E-04   -0.36650E-05  6870   0.773E-03    0.218E-02
RMM:   5    -0.116303032216E+04   -0.21365E-04   -0.20133E-05  6313   0.501E-03    0.171E-02
RMM:   6    -0.116303033518E+04   -0.13017E-04   -0.89912E-06  5403   0.384E-03    0.148E-02
RMM:   7    -0.116303034735E+04   -0.12172E-04   -0.66182E-06  4473   0.333E-03    0.146E-02
RMM:   8    -0.116303036450E+04   -0.17153E-04   -0.86539E-06  4711   0.355E-03
   9 F= -.11630304E+04 E0= -.11630288E+04  d E =-.484091E-03  mag=     4.0333
       N       E                     dE             d eps       ncg     rms          rms(c)
DAV:   1    -0.116303049946E+04   -0.15211E-03   -0.12925E-01 12520   0.409E-01    0.117E-01
RMM:   2    -0.116303090686E+04   -0.40739E-03   -0.32787E-03 12528   0.730E-02    0.704E-02
RMM:   3    -0.116303093200E+04   -0.25148E-04   -0.15067E-04  7360   0.251E-02    0.419E-02
RMM:   4    -0.116303094940E+04   -0.17391E-04   -0.55766E-05  7038   0.980E-03    0.258E-02
RMM:   5    -0.116303097228E+04   -0.22882E-04   -0.27345E-05  6775   0.635E-03    0.198E-02
RMM:   6    -0.116303098546E+04   -0.13178E-04   -0.11666E-05  6242   0.459E-03    0.156E-02
RMM:   7    -0.116303099804E+04   -0.12581E-04   -0.76790E-06  4915   0.368E-03    0.153E-02
RMM:   8    -0.116303101579E+04   -0.17757E-04   -0.93952E-06  5055   0.368E-03
  10 F= -.11630310E+04 E0= -.11630295E+04  d E =-.651290E-03  mag=     4.0333
       N       E                     dE             d eps       ncg     rms          rms(c)
DAV:   1    -0.116303109568E+04   -0.97640E-04   -0.12991E-01 12472   0.410E-01    0.113E-01
RMM:   2    -0.116303149636E+04   -0.40069E-03   -0.33174E-03 12488   0.731E-02    0.704E-02
RMM:   3    -0.116303151963E+04   -0.23273E-04   -0.15180E-04  7366   0.253E-02    0.430E-02
RMM:   4    -0.116303153942E+04   -0.19786E-04   -0.57614E-05  7051   0.988E-03    0.268E-02
RMM:   5    -0.116303156469E+04   -0.25266E-04   -0.28867E-05  6804   0.638E-03    0.197E-02
RMM:   6    -0.116303157914E+04   -0.14457E-04   -0.12299E-05  6228   0.468E-03    0.162E-02
RMM:   7    -0.116303159291E+04   -0.13770E-04   -0.83744E-06  4955   0.373E-03    0.159E-02
RMM:   8    -0.116303161517E+04   -0.22254E-04   -0.12204E-05  5282   0.410E-03
  11 F= -.11630316E+04 E0= -.11630301E+04  d E =-.599375E-03  mag=     4.0332
