       N       E                     dE             d eps       ncg     rms          rms(c)
DAV:   1    -0.116173939294E+04   -0.11617E+04   -0.25580E-06  7216   0.191E-03    0.128E-03
RMM:   2    -0.116173939296E+04   -0.20838E-07   -0.51925E-08  1353   0.142E-03    0.811E-04
RMM:   3    -0.116173939297E+04   -0.10856E-07   -0.65394E-09   786   0.136E-03    0.585E-04
RMM:   4    -0.116173939299E+04   -0.17943E-07   -0.10774E-08   626   0.138E-03    0.351E-04
RMM:   5    -0.116173939300E+04   -0.10186E-07   -0.95558E-09   509   0.139E-03    0.330E-04
RMM:   6    -0.116173939301E+04   -0.14072E-07   -0.19695E-08   511   0.142E-03    0.179E-04
RMM:   7    -0.116173939302E+04   -0.11845E-07   -0.37594E-08   516   0.145E-03    0.168E-04
RMM:   8    -0.116173939303E+04   -0.57626E-08   -0.20053E-08   437   0.144E-03
   1 F= -.11617394E+04 E0= -.11617394E+04  d E =-.116174E+04  mag=     6.0000
       N       E                     dE             d eps       ncg     rms          rms(c)
DAV:   1    -0.116173933900E+04    0.54027E-04   -0.39334E-02 12064   0.228E-01    0.478E-02
RMM:   2    -0.116173941576E+04   -0.76759E-04   -0.10156E-03 11824   0.400E-02    0.339E-02
RMM:   3    -0.116173940945E+04    0.63026E-05   -0.41808E-05  6302   0.140E-02    0.225E-02
RMM:   4    -0.116173940472E+04    0.47326E-05   -0.21276E-05  6198   0.576E-03    0.193E-02
RMM:   5    -0.116173940418E+04    0.54056E-06   -0.46510E-06  5279   0.360E-03    0.616E-03
RMM:   6    -0.116173940421E+04   -0.25670E-07   -0.17237E-06  3343   0.228E-03    0.434E-03
RMM:   7    -0.116173940427E+04   -0.61482E-07   -0.65616E-07  2508   0.216E-03    0.259E-03
RMM:   8    -0.116173940429E+04   -0.26048E-07   -0.85911E-08  1517   0.183E-03
   2 F= -.11617394E+04 E0= -.11617394E+04  d E =-.112637E-04  mag=     6.0000
       N       E                     dE             d eps       ncg     rms          rms(c)
DAV:   1    -0.116173942330E+04   -0.19033E-04   -0.22335E-02 12048   0.167E-01    0.493E-02
RMM:   2    -0.116173943638E+04   -0.13075E-04   -0.71058E-04 11271   0.328E-02    0.401E-02
RMM:   3    -0.116173942153E+04    0.14841E-04   -0.33234E-05  6551   0.115E-02    0.259E-02
RMM:   4    -0.116173940975E+04    0.11789E-04   -0.37227E-05  6608   0.687E-03    0.140E-02
RMM:   5    -0.116173940852E+04    0.12291E-05   -0.62733E-06  5829   0.404E-03    0.892E-03
RMM:   6    -0.116173940852E+04   -0.51223E-08   -0.20651E-06  4109   0.240E-03    0.610E-03
RMM:   7    -0.116173940857E+04   -0.47396E-07   -0.75581E-07  2776   0.224E-03    0.389E-03
RMM:   8    -0.116173940860E+04   -0.27969E-07   -0.20539E-07  2074   0.190E-03
   3 F= -.11617394E+04 E0= -.11617394E+04  d E =-.430281E-05  mag=     6.0000
       N       E                     dE             d eps       ncg     rms          rms(c)
DAV:   1    -0.116173952198E+04   -0.11341E-03   -0.30481E-02 12048   0.200E-01    0.513E-02
RMM:   2    -0.116173955277E+04   -0.30788E-04   -0.91722E-04 11693   0.379E-02    0.455E-02
RMM:   3    -0.116173953997E+04    0.12793E-04   -0.38801E-05  6663   0.129E-02    0.298E-02
RMM:   4    -0.116173952831E+04    0.11659E-04   -0.36742E-05  6657   0.680E-03    0.149E-02
RMM:   5    -0.116173952659E+04    0.17257E-05   -0.66852E-06  5877   0.387E-03    0.666E-03
RMM:   6    -0.116173952664E+04   -0.49607E-07   -0.20345E-06  4081   0.242E-03    0.540E-03
RMM:   7    -0.116173952667E+04   -0.36118E-07   -0.59001E-07  2593   0.218E-03    0.331E-03
RMM:   8    -0.116173952668E+04   -0.16153E-08   -0.15422E-07  2042   0.192E-03
   4 F= -.11617395E+04 E0= -.11617395E+04  d E =-.118079E-03  mag=     6.0000
       N       E                     dE             d eps       ncg     rms          rms(c)
DAV:   1    -0.116173953492E+04   -0.82410E-05   -0.47311E-02 12048   0.248E-01    0.551E-02
RMM:   2    -0.116173961355E+04   -0.78634E-04   -0.12629E-03 11846   0.446E-02    0.455E-02
RMM:   3    -0.116173960466E+04    0.88862E-05   -0.51222E-05  6604   0.151E-02    0.295E-02
RMM:   4    -0.116173959519E+04    0.94686E-05   -0.31967E-05  6607   0.662E-03    0.164E-02
RMM:   5    -0.116173959372E+04    0.14759E-05   -0.71994E-06  5922   0.405E-03    0.819E-03
RMM:   6    -0.116173959387E+04   -0.14633E-06   -0.27816E-06  4559   0.267E-03    0.569E-03
RMM:   7    -0.116173959395E+04   -0.83644E-07   -0.94411E-07  2724   0.227E-03    0.369E-03
RMM:   8    -0.116173959398E+04   -0.32218E-07   -0.32517E-07  2169   0.196E-03
   5 F= -.11617396E+04 E0= -.11617396E+04  d E =-.673053E-04  mag=     6.0000
       N       E                     dE             d eps       ncg     rms          rms(c)
DAV:   1    -0.116173963391E+04   -0.39957E-04   -0.37059E-02 12048   0.220E-01    0.488E-02
RMM:   2    -0.116173969695E+04   -0.63042E-04   -0.97112E-04 11791   0.392E-02    0.364E-02
RMM:   3    -0.116173969046E+04    0.64845E-05   -0.43321E-05  6495   0.141E-02    0.232E-02
RMM:   4    -0.116173968414E+04    0.63212E-05   -0.25267E-05  6448   0.598E-03    0.141E-02
RMM:   5    -0.116173968342E+04    0.72029E-06   -0.55235E-06  5556   0.360E-03    0.715E-03
RMM:   6    -0.116173968352E+04   -0.10261E-06   -0.23043E-06  3697   0.246E-03    0.521E-03
RMM:   7    -0.116173968360E+04   -0.72992E-07   -0.80944E-07  2522   0.224E-03    0.293E-03
RMM:   8    -0.116173968363E+04   -0.35099E-07   -0.26565E-07  1989   0.194E-03
   6 F= -.11617397E+04 E0= -.11617397E+04  d E =-.896517E-04  mag=     6.0000
       N       E                     dE             d eps       ncg     rms          rms(c)
DAV:   1    -0.116173967838E+04    0.52201E-05   -0.36937E-02 12048   0.220E-01    0.446E-02
RMM:   2    -0.116173975089E+04   -0.72510E-04   -0.92403E-04 11680   0.381E-02    0.313E-02
RMM:   3    -0.116173974713E+04    0.37605E-05   -0.40153E-05  6419   0.136E-02    0.199E-02
RMM:   4    -0.116173974322E+04    0.39028E-05   -0.19224E-05  6221   0.529E-03    0.119E-02
RMM:   5    -0.116173974273E+04    0.49105E-06   -0.44657E-06  5195   0.325E-03    0.522E-03
RMM:   6    -0.116173974287E+04   -0.13152E-06   -0.17777E-06  3265   0.239E-03    0.370E-03
RMM:   7    -0.116173974292E+04   -0.51819E-07   -0.58553E-07  2297   0.213E-03    0.206E-03
RMM:   8    -0.116173974294E+04   -0.18190E-07   -0.24023E-07  1810   0.194E-03
   7 F= -.11617397E+04 E0= -.11617397E+04  d E =-.593023E-04  mag=     6.0000
