       N       E                     dE             d eps       ncg     rms          rms(c)
DAV:   1    -0.116280581675E+04   -0.11628E+04   -0.12132E-05  7664   0.754E-03    0.752E-03
RMM:   2    -0.116280582303E+04   -0.62811E-05   -0.87171E-06  5550   0.427E-03    0.975E-03
RMM:   3    -0.116280582486E+04   -0.18314E-05   -0.29958E-06  4217   0.264E-03    0.703E-03
RMM:   4    -0.116280582473E+04    0.12817E-06   -0.12542E-06  2985   0.249E-03    0.713E-03
RMM:   5    -0.116280582384E+04    0.89611E-06   -0.67681E-07  2296   0.209E-03    0.830E-03
RMM:   6    -0.116280582390E+04   -0.67521E-07   -0.30458E-07  1834   0.202E-03    0.812E-03
RMM:   7    -0.116280582395E+04   -0.42462E-07   -0.84985E-08  1384   0.189E-03    0.791E-03
RMM:   8    -0.116280582389E+04    0.58935E-07   -0.97005E-07  2220   0.218E-03
   1 F= -.11628058E+04 E0= -.11628058E+04  d E =-.116281E+04  mag=     6.0000
       N       E                     dE             d eps       ncg     rms          rms(c)
DAV:   1    -0.116280593056E+04   -0.10661E-03   -0.12557E-01 12432   0.409E-01    0.120E-01
RMM:   2    -0.116280615258E+04   -0.22202E-03   -0.37770E-03 12252   0.791E-02    0.108E-01
RMM:   3    -0.116280612484E+04    0.27739E-04   -0.14083E-04  7623   0.245E-02    0.698E-02
RMM:   4    -0.116280609659E+04    0.28255E-04   -0.11911E-04  7304   0.133E-02    0.503E-02
RMM:   5    -0.116280609748E+04   -0.89838E-06   -0.29685E-05  6935   0.811E-03    0.191E-02
RMM:   6    -0.116280610089E+04   -0.34011E-05   -0.12310E-05  6190   0.492E-03    0.152E-02
RMM:   7    -0.116280610458E+04   -0.36973E-05   -0.58747E-06  5536   0.388E-03    0.110E-02
RMM:   8    -0.116280610983E+04   -0.52479E-05   -0.49302E-06  4941   0.312E-03
   2 F= -.11628061E+04 E0= -.11628061E+04  d E =-.285943E-03  mag=     6.0000
       N       E                     dE             d eps       ncg     rms          rms(c)
DAV:   1    -0.116280641049E+04   -0.30591E-03   -0.26829E-02 12192   0.188E-01    0.590E-02
RMM:   2    -0.116280643890E+04   -0.28409E-04   -0.92994E-04 11631   0.389E-02    0.568E-02
RMM:   3    -0.116280642779E+04    0.11113E-04   -0.35786E-05  6521   0.115E-02    0.382E-02
RMM:   4    -0.116280642087E+04    0.69133E-05   -0.44689E-05  6659   0.799E-03    0.197E-02
RMM:   5    -0.116280642319E+04   -0.23135E-05   -0.11694E-05  5849   0.472E-03    0.139E-02
RMM:   6    -0.116280642534E+04   -0.21493E-05   -0.38272E-06  4547   0.318E-03    0.973E-03
RMM:   7    -0.116280642825E+04   -0.29148E-05   -0.22249E-06  3170   0.241E-03    0.780E-03
RMM:   8    -0.116280643488E+04   -0.66306E-05   -0.46248E-06  3891   0.312E-03
   3 F= -.11628064E+04 E0= -.11628064E+04  d E =-.325050E-03  mag=     6.0000
