       N       E                     dE             d eps       ncg     rms          rms(c)
DAV:   1    -0.116159654194E+04   -0.11616E+04   -0.24031E-06  7344   0.194E-03    0.124E-03
RMM:   2    -0.116159654198E+04   -0.40367E-07   -0.58260E-08  1242   0.148E-03    0.800E-04
RMM:   3    -0.116159654200E+04   -0.15934E-07   -0.14082E-08   689   0.144E-03    0.576E-04
RMM:   4    -0.116159654202E+04   -0.28173E-07   -0.14525E-08   547   0.145E-03    0.426E-04
RMM:   5    -0.116159654204E+04   -0.17462E-07   -0.22894E-08   492   0.145E-03    0.395E-04
RMM:   6    -0.116159654207E+04   -0.26383E-07   -0.38019E-08   517   0.148E-03    0.384E-04
RMM:   7    -0.116159654207E+04   -0.28667E-08   -0.10214E-08   410   0.146E-03    0.426E-04
RMM:   8    -0.116159654207E+04    0.15425E-08   -0.30229E-09   372   0.145E-03
   1 F= -.11615965E+04 E0= -.11615965E+04  d E =-.116160E+04  mag=     6.0000
       N       E                     dE             d eps       ncg     rms          rms(c)
DAV:   1    -0.116159633724E+04    0.20483E-03   -0.10687E-01 12408   0.381E-01    0.790E-02
RMM:   2    -0.116159655970E+04   -0.22245E-03   -0.26982E-03 12471   0.663E-02    0.482E-02
RMM:   3    -0.116159654925E+04    0.10450E-04   -0.11402E-04  6766   0.232E-02    0.300E-02
RMM:   4    -0.116159653980E+04    0.94444E-05   -0.48885E-05  6472   0.882E-03    0.154E-02
RMM:   5    -0.116159653994E+04   -0.13967E-06   -0.11089E-05  6115   0.495E-03    0.558E-03
RMM:   6    -0.116159654048E+04   -0.54231E-06   -0.47231E-06  5086   0.327E-03    0.359E-03
RMM:   7    -0.116159654074E+04   -0.25670E-06   -0.19229E-06  3427   0.267E-03    0.225E-03
RMM:   8    -0.116159654088E+04   -0.14099E-06   -0.80120E-07  2500   0.216E-03
   2 F= -.11615965E+04 E0= -.11615965E+04  d E =0.118860E-05  mag=     6.0000
       N       E                     dE             d eps       ncg     rms          rms(c)
DAV:   1    -0.116159646903E+04    0.71708E-04   -0.61009E-02 12208   0.288E-01    0.610E-02
RMM:   2    -0.116159658898E+04   -0.11995E-03   -0.16009E-03 12304   0.514E-02    0.404E-02
RMM:   3    -0.116159658114E+04    0.78439E-05   -0.70112E-05  6812   0.181E-02    0.253E-02
RMM:   4    -0.116159657379E+04    0.73512E-05   -0.35434E-05  6681   0.734E-03    0.137E-02
RMM:   5    -0.116159657339E+04    0.39792E-06   -0.80853E-06  5912   0.424E-03    0.563E-03
RMM:   6    -0.116159657370E+04   -0.31569E-06   -0.34891E-06  4659   0.282E-03    0.402E-03
RMM:   7    -0.116159657384E+04   -0.13295E-06   -0.12296E-06  2931   0.249E-03    0.237E-03
RMM:   8    -0.116159657392E+04   -0.79046E-07   -0.48811E-07  2115   0.202E-03
   3 F= -.11615966E+04 E0= -.11615966E+04  d E =-.330352E-04  mag=     6.0000
       N       E                     dE             d eps       ncg     rms          rms(c)
DAV:   1    -0.116159644152E+04    0.13231E-03   -0.10082E-01 12384   0.371E-01    0.740E-02
RMM:   2    -0.116159666094E+04   -0.21942E-03   -0.25266E-03 12640   0.642E-02    0.466E-02
RMM:   3    -0.116159665534E+04    0.56042E-05   -0.10306E-04  6930   0.217E-02    0.286E-02
RMM:   4    -0.116159664874E+04    0.65955E-05   -0.39338E-05  6750   0.808E-03    0.150E-02
RMM:   5    -0.116159664844E+04    0.29936E-06   -0.10954E-05  6444   0.474E-03    0.539E-03
RMM:   6    -0.116159664895E+04   -0.50427E-06   -0.43023E-06  5275   0.334E-03    0.344E-03
RMM:   7    -0.116159664920E+04   -0.25058E-06   -0.18594E-06  3561   0.257E-03    0.239E-03
RMM:   8    -0.116159664935E+04   -0.15096E-06   -0.91393E-07  2793   0.224E-03
   4 F= -.11615966E+04 E0= -.11615966E+04  d E =-.754315E-04  mag=     6.0000
       N       E                     dE             d eps       ncg     rms          rms(c)
DAV:   1    -0.116159660951E+04    0.39690E-04   -0.54255E-02 12160   0.272E-01    0.542E-02
RMM:   2    -0.116159672861E+04   -0.11910E-03   -0.13413E-03 12228   0.471E-02    0.311E-02
RMM:   3    -0.116159672717E+04    0.14388E-05   -0.60229E-05  6658   0.172E-02    0.192E-02
RMM:   4    -0.116159672473E+04    0.24431E-05   -0.23505E-05  6488   0.610E-03    0.114E-02
RMM:   5    -0.116159672455E+04    0.17481E-06   -0.58967E-06  5342   0.373E-03    0.494E-03
RMM:   6    -0.116159672488E+04   -0.32225E-06   -0.32228E-06  4276   0.275E-03    0.289E-03
RMM:   7    -0.116159672501E+04   -0.13238E-06   -0.10114E-06  2796   0.232E-03    0.185E-03
RMM:   8    -0.116159672508E+04   -0.72119E-07   -0.36641E-07  1902   0.196E-03
   5 F= -.11615967E+04 E0= -.11615967E+04  d E =-.757318E-04  mag=     6.0000
       N       E                     dE             d eps       ncg     rms          rms(c)
DAV:   1    -0.116159661155E+04    0.11346E-03   -0.97522E-02 12368   0.365E-01    0.712E-02
RMM:   2    -0.116159682376E+04   -0.21221E-03   -0.24480E-03 12562   0.632E-02    0.419E-02
RMM:   3    -0.116159681774E+04    0.60198E-05   -0.10097E-04  6926   0.219E-02    0.259E-02
RMM:   4    -0.116159681160E+04    0.61413E-05   -0.40546E-05  6806   0.812E-03    0.138E-02
RMM:   5    -0.116159681163E+04   -0.27998E-07   -0.10356E-05  6483   0.477E-03    0.662E-03
RMM:   6    -0.116159681214E+04   -0.51307E-06   -0.45180E-06  5428   0.334E-03    0.443E-03
RMM:   7    -0.116159681238E+04   -0.23717E-06   -0.19080E-06  3748   0.264E-03    0.276E-03
RMM:   8    -0.116159681251E+04   -0.13541E-06   -0.93648E-07  2870   0.221E-03
   6 F= -.11615968E+04 E0= -.11615968E+04  d E =-.874347E-04  mag=     6.0000
       N       E                     dE             d eps       ncg     rms          rms(c)
DAV:   1    -0.116159655983E+04    0.25255E-03   -0.20682E-01 12512   0.533E-01    0.100E-01
RMM:   2    -0.116159701313E+04   -0.45331E-03   -0.51378E-03 12742   0.912E-02    0.588E-02
RMM:   3    -0.116159700377E+04    0.93654E-05   -0.21918E-04  7794   0.305E-02    0.365E-02
RMM:   4    -0.116159699164E+04    0.12130E-04   -0.67400E-05  6959   0.110E-02    0.188E-02
RMM:   5    -0.116159699201E+04   -0.36955E-06   -0.20952E-05  6780   0.671E-03    0.708E-03
RMM:   6    -0.116159699303E+04   -0.10220E-05   -0.86164E-06  6241   0.466E-03    0.487E-03
RMM:   7    -0.116159699357E+04   -0.54554E-06   -0.46507E-06  4918   0.334E-03    0.340E-03
RMM:   8    -0.116159699391E+04   -0.33571E-06   -0.27307E-06  4329   0.298E-03
   7 F= -.11615970E+04 E0= -.11615970E+04  d E =-.181396E-03  mag=     6.0000
       N       E                     dE             d eps       ncg     rms          rms(c)
DAV:   1    -0.116159669292E+04    0.30066E-03   -0.20919E-01 12472   0.536E-01    0.103E-01
RMM:   2    -0.116159715843E+04   -0.46551E-03   -0.51849E-03 12760   0.917E-02    0.586E-02
RMM:   3    -0.116159715040E+04    0.80257E-05   -0.21919E-04  7819   0.303E-02    0.359E-02
RMM:   4    -0.116159713838E+04    0.12023E-04   -0.66037E-05  6950   0.109E-02    0.184E-02
RMM:   5    -0.116159713838E+04   -0.22119E-08   -0.21983E-05  6797   0.676E-03    0.674E-03
RMM:   6    -0.116159713943E+04   -0.10500E-05   -0.90942E-06  6315   0.477E-03    0.437E-03
RMM:   7    -0.116159714001E+04   -0.57336E-06   -0.49787E-06  5043   0.338E-03    0.296E-03
RMM:   8    -0.116159714036E+04   -0.34978E-06   -0.28885E-06  4460   0.308E-03
   8 F= -.11615971E+04 E0= -.11615971E+04  d E =-.146445E-03  mag=     6.0000
       N       E                     dE             d eps       ncg     rms          rms(c)
DAV:   1    -0.116159668564E+04    0.45437E-03   -0.24602E-01 12632   0.583E-01    0.110E-01
RMM:   2    -0.116159723821E+04   -0.55257E-03   -0.60746E-03 12741   0.988E-02    0.618E-02
RMM:   3    -0.116159723054E+04    0.76731E-05   -0.26036E-04  8153   0.326E-02    0.382E-02
RMM:   4    -0.116159721792E+04    0.12618E-04   -0.70357E-05  6959   0.114E-02    0.204E-02
RMM:   5    -0.116159721797E+04   -0.56694E-07   -0.25367E-05  6811   0.731E-03    0.664E-03
RMM:   6    -0.116159721921E+04   -0.12318E-05   -0.10435E-05  6440   0.512E-03    0.427E-03
RMM:   7    -0.116159721988E+04   -0.67709E-06   -0.58707E-06  5411   0.362E-03    0.291E-03
RMM:   8    -0.116159722029E+04   -0.40482E-06   -0.34198E-06  4603   0.327E-03
   9 F= -.11615972E+04 E0= -.11615972E+04  d E =-.799332E-04  mag=     6.0000
       N       E                     dE             d eps       ncg     rms          rms(c)
DAV:   1    -0.116159684320E+04    0.37668E-03   -0.20776E-01 12608   0.537E-01    0.101E-01
RMM:   2    -0.116159730935E+04   -0.46615E-03   -0.51112E-03 12620   0.909E-02    0.549E-02
RMM:   3    -0.116159730402E+04    0.53325E-05   -0.21566E-04  7758   0.306E-02    0.337E-02
RMM:   4    -0.116159729465E+04    0.93733E-05   -0.63820E-05  6929   0.105E-02    0.180E-02
RMM:   5    -0.116159729477E+04   -0.12567E-06   -0.21391E-05  6793   0.666E-03    0.676E-03
RMM:   6    -0.116159729585E+04   -0.10729E-05   -0.93286E-06  6271   0.479E-03    0.419E-03
RMM:   7    -0.116159729644E+04   -0.59715E-06   -0.51176E-06  4954   0.345E-03    0.305E-03
RMM:   8    -0.116159729679E+04   -0.35252E-06   -0.29927E-06  4370   0.310E-03
  10 F= -.11615973E+04 E0= -.11615973E+04  d E =-.765063E-04  mag=     6.0000
       N       E                     dE             d eps       ncg     rms          rms(c)
DAV:   1    -0.116159674188E+04    0.55456E-03   -0.24694E-01 12696   0.585E-01    0.109E-01
RMM:   2    -0.116159730131E+04   -0.55943E-03   -0.60557E-03 12796   0.991E-02    0.576E-02
RMM:   3    -0.116159729638E+04    0.49342E-05   -0.25800E-04  8118   0.324E-02    0.353E-02
RMM:   4    -0.116159728575E+04    0.10626E-04   -0.64716E-05  6927   0.111E-02    0.188E-02
RMM:   5    -0.116159728579E+04   -0.40338E-07   -0.25383E-05  6777   0.728E-03    0.609E-03
RMM:   6    -0.116159728702E+04   -0.12311E-05   -0.10138E-05  6243   0.513E-03    0.354E-03
RMM:   7    -0.116159728770E+04   -0.67512E-06   -0.58391E-06  5131   0.360E-03    0.236E-03
RMM:   8    -0.116159728809E+04   -0.39715E-06   -0.33558E-06  4547   0.330E-03
  11 F= -.11615973E+04 E0= -.11615973E+04  d E =0.869992E-05  mag=     6.0000
       N       E                     dE             d eps       ncg     rms          rms(c)
DAV:   1    -0.116159677165E+04    0.51605E-03   -0.21964E-01 12584   0.551E-01    0.103E-01
RMM:   2    -0.116159726944E+04   -0.49779E-03   -0.53792E-03 12694   0.933E-02    0.533E-02
RMM:   3    -0.116159726558E+04    0.38608E-05   -0.22963E-04  7885   0.312E-02    0.325E-02
RMM:   4    -0.116159725673E+04    0.88503E-05   -0.61337E-05  6902   0.105E-02    0.178E-02
RMM:   5    -0.116159725666E+04    0.69092E-07   -0.22628E-05  6763   0.680E-03    0.634E-03
RMM:   6    -0.116159725776E+04   -0.10966E-05   -0.93893E-06  6118   0.489E-03    0.350E-03
RMM:   7    -0.116159725836E+04   -0.59932E-06   -0.52705E-06  4944   0.346E-03    0.235E-03
RMM:   8    -0.116159725869E+04   -0.33234E-06   -0.29677E-06  4336   0.317E-03
  12 F= -.11615973E+04 E0= -.11615973E+04  d E =0.294050E-04  mag=     6.0000
