       N       E                     dE             d eps       ncg     rms          rms(c)
DAV:   1    -0.116069407448E+04   -0.11607E+04   -0.57923E-06  3824   0.516E-03    0.529E-03
RMM:   2    -0.116069407536E+04   -0.87310E-06   -0.38172E-06  2594   0.341E-03    0.808E-03
RMM:   3    -0.116069407568E+04   -0.32634E-06   -0.17647E-06  1583   0.221E-03    0.258E-03
RMM:   4    -0.116069407581E+04   -0.13113E-06   -0.93642E-07  1255   0.216E-03    0.247E-03
RMM:   5    -0.116069407597E+04   -0.15349E-06   -0.54409E-07  1047   0.194E-03    0.299E-03
RMM:   6    -0.116069407633E+04   -0.36333E-06   -0.55294E-07  1000   0.193E-03    0.501E-03
RMM:   7    -0.116069407701E+04   -0.67790E-06   -0.78149E-07  1113   0.194E-03    0.697E-03
RMM:   8    -0.116069407786E+04   -0.84900E-06   -0.88491E-07  1180   0.204E-03
   1 F= -.11606941E+04 E0= -.11606941E+04  d E =-.116069E+04  mag=     8.0000
       N       E                     dE             d eps       ncg     rms          rms(c)
DAV:   1    -0.116069491154E+04   -0.83453E-03   -0.60858E-01  6392   0.905E-01    0.260E-01
RMM:   2    -0.116069559631E+04   -0.68477E-03   -0.19179E-02  6161   0.183E-01    0.248E-01
RMM:   3    -0.116069537672E+04    0.21959E-03   -0.10698E-03  6038   0.592E-02    0.156E-01
RMM:   4    -0.116069512720E+04    0.24952E-03   -0.66020E-04  5311   0.280E-02    0.793E-02
RMM:   5    -0.116069508960E+04    0.37601E-04   -0.15274E-04  4125   0.185E-02    0.333E-02
RMM:   6    -0.116069508995E+04   -0.34629E-06   -0.38353E-05  3603   0.101E-02    0.222E-02
RMM:   7    -0.116069509088E+04   -0.93518E-06   -0.17081E-05  3403   0.639E-03    0.206E-02
RMM:   8    -0.116069509188E+04   -0.99419E-06   -0.10461E-05  3389   0.483E-03
   2 F= -.11606951E+04 E0= -.11606951E+04  d E =-.101402E-02  mag=     8.0000
       N       E                     dE             d eps       ncg     rms          rms(c)
DAV:   1    -0.116069663147E+04   -0.15406E-02   -0.13122E-01  6432   0.419E-01    0.127E-01
RMM:   2    -0.116069656227E+04    0.69201E-04   -0.46338E-03  6131   0.895E-02    0.113E-01
RMM:   3    -0.116069646023E+04    0.10204E-03   -0.24024E-04  4351   0.291E-02    0.690E-02
RMM:   4    -0.116069637540E+04    0.84833E-04   -0.24945E-04  4622   0.165E-02    0.365E-02
RMM:   5    -0.116069636566E+04    0.97392E-05   -0.50470E-05  3555   0.106E-02    0.213E-02
RMM:   6    -0.116069636697E+04   -0.13081E-05   -0.17045E-05  3198   0.558E-03    0.169E-02
RMM:   7    -0.116069636774E+04   -0.77419E-06   -0.72294E-06  2930   0.410E-03    0.912E-03
RMM:   8    -0.116069636854E+04   -0.80158E-06   -0.49103E-06  2932   0.316E-03
   3 F= -.11606964E+04 E0= -.11606964E+04  d E =-.127666E-02  mag=     8.0000
       N       E                     dE             d eps       ncg     rms          rms(c)
DAV:   1    -0.116069669632E+04   -0.32858E-03   -0.11892E-01  6400   0.398E-01    0.910E-02
RMM:   2    -0.116069696593E+04   -0.26960E-03   -0.30507E-03  6251   0.690E-02    0.632E-02
RMM:   3    -0.116069696199E+04    0.39381E-05   -0.13297E-04  3608   0.237E-02    0.393E-02
RMM:   4    -0.116069695356E+04    0.84230E-05   -0.49469E-05  3461   0.915E-03    0.203E-02
RMM:   5    -0.116069695406E+04   -0.49191E-06   -0.14876E-05  3316   0.559E-03    0.111E-02
RMM:   6    -0.116069695496E+04   -0.90590E-06   -0.62560E-06  2955   0.385E-03    0.612E-03
RMM:   7    -0.116069695550E+04   -0.53554E-06   -0.30507E-06  2072   0.283E-03    0.382E-03
RMM:   8    -0.116069695608E+04   -0.58155E-06   -0.19278E-06  1821   0.254E-03
   4 F= -.11606970E+04 E0= -.11606970E+04  d E =-.587537E-03  mag=     8.0000
       N       E                     dE             d eps       ncg     rms          rms(c)
DAV:   1    -0.116069721043E+04   -0.25494E-03   -0.52799E-02  6112   0.264E-01    0.615E-02
RMM:   2    -0.116069732721E+04   -0.11678E-03   -0.13505E-03  6091   0.456E-02    0.419E-02
RMM:   3    -0.116069732385E+04    0.33638E-05   -0.59632E-05  3449   0.163E-02    0.258E-02
RMM:   4    -0.116069731966E+04    0.41868E-05   -0.27169E-05  3362   0.663E-03    0.148E-02
RMM:   5    -0.116069731983E+04   -0.17013E-06   -0.70193E-06  2924   0.405E-03    0.914E-03
RMM:   6    -0.116069732033E+04   -0.49743E-06   -0.32505E-06  2281   0.291E-03    0.450E-03
RMM:   7    -0.116069732066E+04   -0.32503E-06   -0.14707E-06  1583   0.242E-03    0.258E-03
RMM:   8    -0.116069732103E+04   -0.37652E-06   -0.96945E-07  1393   0.224E-03
   5 F= -.11606973E+04 E0= -.11606973E+04  d E =-.364953E-03  mag=     8.0000
       N       E                     dE             d eps       ncg     rms          rms(c)
DAV:   1    -0.116069748121E+04   -0.16055E-03   -0.17312E-01  6272   0.478E-01    0.105E-01
RMM:   2    -0.116069790843E+04   -0.42722E-03   -0.42942E-03  6405   0.801E-02    0.626E-02
RMM:   3    -0.116069791064E+04   -0.22065E-05   -0.17574E-04  3712   0.260E-02    0.376E-02
RMM:   4    -0.116069790398E+04    0.66551E-05   -0.49146E-05  3479   0.946E-03    0.183E-02
RMM:   5    -0.116069790515E+04   -0.11688E-05   -0.17545E-05  3382   0.596E-03    0.804E-03
RMM:   6    -0.116069790623E+04   -0.10735E-05   -0.73058E-06  2978   0.424E-03    0.508E-03
RMM:   7    -0.116069790684E+04   -0.61211E-06   -0.38280E-06  2253   0.304E-03    0.297E-03
RMM:   8    -0.116069790740E+04   -0.55943E-06   -0.22876E-06  1936   0.271E-03
   6 F= -.11606979E+04 E0= -.11606979E+04  d E =-.586367E-03  mag=     8.0000
       N       E                     dE             d eps       ncg     rms          rms(c)
DAV:   1    -0.116069800534E+04   -0.98504E-04   -0.21766E-01  6288   0.532E-01    0.116E-01
RMM:   2    -0.116069854709E+04   -0.54175E-03   -0.53166E-03  6408   0.875E-02    0.685E-02
RMM:   3    -0.116069855103E+04   -0.39390E-05   -0.21697E-04  3853   0.282E-02    0.407E-02
RMM:   4    -0.116069854344E+04    0.75940E-05   -0.56721E-05  3494   0.101E-02    0.204E-02
RMM:   5    -0.116069854510E+04   -0.16623E-05   -0.21067E-05  3411   0.653E-03    0.106E-02
RMM:   6    -0.116069854646E+04   -0.13633E-05   -0.89891E-06  3098   0.464E-03    0.579E-03
RMM:   7    -0.116069854729E+04   -0.82167E-06   -0.48828E-06  2448   0.334E-03    0.382E-03
RMM:   8    -0.116069854806E+04   -0.77713E-06   -0.30174E-06  2102   0.297E-03
   7 F= -.11606985E+04 E0= -.11606985E+04  d E =-.640664E-03  mag=     8.0000
