       N       E                     dE             d eps       ncg     rms          rms(c)
DAV:   1    -0.116912429958E+04   -0.11691E+04   -0.52913E-06  3848   0.717E-03    0.162E-02
RMM:   2    -0.116912429930E+04    0.28165E-06   -0.51754E-06  2645   0.380E-03    0.265E-02
RMM:   3    -0.116912429938E+04   -0.81011E-07   -0.16352E-06  1615   0.235E-03    0.254E-03
RMM:   4    -0.116912429941E+04   -0.21057E-07   -0.63123E-07  1181   0.210E-03    0.131E-03
RMM:   5    -0.116912429943E+04   -0.26412E-07   -0.23079E-07   835   0.183E-03    0.202E-03
RMM:   6    -0.116912429942E+04    0.12020E-07   -0.53263E-08   555   0.176E-03    0.101E-03
RMM:   7    -0.116912429942E+04    0.20373E-09   -0.12583E-08   498   0.174E-03    0.425E-04
RMM:   8    -0.116912429942E+04    0.31432E-08   -0.16704E-09   404   0.173E-03
   1 F= -.11691243E+04 E0= -.11691243E+04  d E =-.116912E+04  mag=    10.0000
       N       E                     dE             d eps       ncg     rms          rms(c)
DAV:   1    -0.116912435949E+04   -0.60072E-04   -0.78989E-02  6128   0.329E-01    0.981E-02
RMM:   2    -0.116912450876E+04   -0.14927E-03   -0.25250E-03  6117   0.635E-02    0.946E-02
RMM:   3    -0.116912448361E+04    0.25147E-04   -0.88518E-05  3584   0.183E-02    0.639E-02
RMM:   4    -0.116912445871E+04    0.24897E-04   -0.93976E-05  3534   0.114E-02    0.314E-02
RMM:   5    -0.116912445458E+04    0.41318E-05   -0.18850E-05  3328   0.654E-03    0.191E-02
RMM:   6    -0.116912445473E+04   -0.14831E-06   -0.59943E-06  2856   0.345E-03    0.989E-03
RMM:   7    -0.116912445476E+04   -0.35667E-07   -0.24626E-06  2218   0.285E-03    0.652E-03
RMM:   8    -0.116912445482E+04   -0.58571E-07   -0.96628E-07  1516   0.214E-03
   2 F= -.11691245E+04 E0= -.11691245E+04  d E =-.155407E-03  mag=    10.0000
       N       E                     dE             d eps       ncg     rms          rms(c)
DAV:   1    -0.116912462998E+04   -0.17521E-03   -0.16427E-02  6080   0.148E-01    0.486E-02
RMM:   2    -0.116912465018E+04   -0.20208E-04   -0.58787E-04  5559   0.304E-02    0.521E-02
RMM:   3    -0.116912464193E+04    0.82551E-05   -0.22917E-05  3136   0.863E-03    0.373E-02
RMM:   4    -0.116912463416E+04    0.77702E-05   -0.27660E-05  3050   0.617E-03    0.215E-02
RMM:   5    -0.116912463219E+04    0.19660E-05   -0.66324E-06  2630   0.398E-03    0.123E-02
RMM:   6    -0.116912463204E+04    0.15166E-06   -0.14973E-06  1647   0.231E-03    0.560E-03
RMM:   7    -0.116912463199E+04    0.53056E-07   -0.50162E-07  1122   0.205E-03    0.344E-03
RMM:   8    -0.116912463198E+04    0.58062E-08   -0.29278E-07   924   0.191E-03
   3 F= -.11691246E+04 E0= -.11691246E+04  d E =-.177160E-03  mag=    10.0000
