       N       E                     dE             d eps       ncg     rms          rms(c)
DAV:   1     0.120958434902E+05    0.12096E+05   -0.42683E+05  6160   0.132E+03
DAV:   2     0.701643409701E+03   -0.11394E+05   -0.10181E+05  6152   0.380E+02
DAV:   3    -0.136640316657E+04   -0.20680E+04   -0.19920E+04  6608   0.168E+02
DAV:   4    -0.150595962619E+04   -0.13956E+03   -0.13731E+03  8096   0.460E+01
DAV:   5    -0.151502327442E+04   -0.90636E+01   -0.90238E+01 11104   0.109E+01    0.183E+02
RMM:   6    -0.117162162212E+04    0.34340E+03   -0.16437E+03  6257   0.358E+01    0.123E+02
RMM:   7    -0.115545703969E+04    0.16165E+02   -0.59309E+01  6400   0.117E+01    0.729E+01
RMM:   8    -0.115888459166E+04   -0.34276E+01   -0.20057E+01  6974   0.492E+00    0.351E+01
RMM:   9    -0.116329820109E+04   -0.44136E+01   -0.70239E+00  6507   0.324E+00    0.106E+01
RMM:  10    -0.116446513474E+04   -0.11669E+01   -0.17075E+00  7028   0.138E+00    0.673E+00
RMM:  11    -0.116567021265E+04   -0.12051E+01   -0.14343E+00  7311   0.945E-01    0.414E+00
RMM:  12    -0.116640437964E+04   -0.73417E+00   -0.69070E-01  6859   0.803E-01    0.204E+00
RMM:  13    -0.116656014039E+04   -0.15576E+00   -0.20883E-01  7746   0.428E-01    0.133E+00
RMM:  14    -0.116661439938E+04   -0.54259E-01   -0.10783E-01  7262   0.284E-01    0.738E-01
RMM:  15    -0.116662316772E+04   -0.87683E-02   -0.31222E-02  7804   0.164E-01    0.527E-01
RMM:  16    -0.116662506954E+04   -0.19018E-02   -0.13495E-02  8455   0.922E-02    0.289E-01
RMM:  17    -0.116662525937E+04   -0.18983E-03   -0.41114E-03  7202   0.589E-02    0.128E-01
RMM:  18    -0.116662539801E+04   -0.13865E-03   -0.20413E-03  6636   0.285E-02    0.699E-02
RMM:  19    -0.116662546925E+04   -0.71241E-04   -0.89834E-04  5272   0.209E-02
   1 F= -.11666255E+04 E0= -.11666255E+04  d E =-.116663E+04  mag=    10.0014
       N       E                     dE             d eps       ncg     rms          rms(c)
DAV:   1    -0.114501299586E+04    0.21612E+02   -0.18195E+03  6392   0.437E+01    0.317E+01
RMM:   2    -0.116823173495E+04   -0.23219E+02   -0.28180E+02  6755   0.125E+01    0.211E+01
RMM:   3    -0.116447171282E+04    0.37600E+01   -0.17835E+01  6429   0.435E+00    0.167E+01
RMM:   4    -0.116252783710E+04    0.19439E+01   -0.42848E+00  7340   0.159E+00    0.104E+01
RMM:   5    -0.116395758072E+04   -0.14297E+01   -0.38158E+00  6526   0.110E+00    0.261E+01
RMM:   6    -0.116217616105E+04    0.17814E+01   -0.27949E+00  6650   0.920E-01    0.497E+00
RMM:   7    -0.116206662444E+04    0.10954E+00   -0.35753E-01  6638   0.521E-01    0.249E+00
RMM:   8    -0.116211376603E+04   -0.47142E-01   -0.24198E-01  6884   0.315E-01    0.240E+00
RMM:   9    -0.116203490640E+04    0.78860E-01   -0.42932E-02  6848   0.140E-01    0.165E+00
RMM:  10    -0.116202271738E+04    0.12189E-01   -0.10342E-02  7427   0.669E-02    0.135E+00
RMM:  11    -0.116202074834E+04    0.19690E-02   -0.51833E-03  6688   0.515E-02    0.115E+00
RMM:  12    -0.116201108706E+04    0.96613E-02   -0.39230E-03  6615   0.429E-02    0.882E-01
RMM:  13    -0.116200504735E+04    0.60397E-02   -0.40738E-03  6482   0.301E-02    0.665E-01
RMM:  14    -0.116200225580E+04    0.27915E-02   -0.19254E-03  5948   0.249E-02    0.483E-01
RMM:  15    -0.116200040364E+04    0.18522E-02   -0.16251E-03  5920   0.248E-02    0.292E-01
RMM:  16    -0.116199978558E+04    0.61806E-03   -0.84487E-04  5272   0.198E-02    0.171E-01
RMM:  17    -0.116199957740E+04    0.20817E-03   -0.57010E-04  4688   0.161E-02    0.781E-02
RMM:  18    -0.116199959186E+04   -0.14463E-04   -0.21721E-04  4043   0.131E-02
   2 F= -.11619996E+04 E0= -.11619996E+04  d E =0.462588E+01  mag=    10.0015
       N       E                     dE             d eps       ncg     rms          rms(c)
DAV:   1    -0.116516535086E+04   -0.31658E+01   -0.51864E+02  6408   0.196E+01    0.155E+01
RMM:   2    -0.116640448690E+04   -0.12391E+01   -0.21598E+01  6144   0.496E+00    0.143E+01
RMM:   3    -0.116629586031E+04    0.10863E+00   -0.15280E+00  6716   0.132E+00    0.926E+00
RMM:   4    -0.116653835728E+04   -0.24250E+00   -0.18160E+00  6266   0.103E+00    0.697E+00
RMM:   5    -0.116608056628E+04    0.45779E+00   -0.53599E-01  6696   0.560E-01    0.158E+00
RMM:   6    -0.116606160479E+04    0.18961E-01   -0.56722E-02  6890   0.250E-01    0.964E-01
RMM:   7    -0.116605999280E+04    0.16120E-02   -0.87288E-03  7861   0.889E-02    0.664E-01
RMM:   8    -0.116605991925E+04    0.73546E-04   -0.44351E-03  7398   0.543E-02    0.254E-01
RMM:   9    -0.116605965391E+04    0.26534E-03   -0.15356E-03  6886   0.349E-02    0.977E-02
RMM:  10    -0.116605963506E+04    0.18853E-04   -0.37254E-04  5237   0.168E-02
   3 F= -.11660596E+04 E0= -.11660596E+04  d E =-.406004E+01  mag=    10.0001
       N       E                     dE             d eps       ncg     rms          rms(c)
DAV:   1    -0.116672699841E+04   -0.66734E+00   -0.26047E+02  6528   0.161E+01    0.595E+00
RMM:   2    -0.116752274440E+04   -0.79575E+00   -0.10185E+01  6146   0.318E+00    0.731E+00
RMM:   3    -0.116740433250E+04    0.11841E+00   -0.37933E-01  6762   0.739E-01    0.558E+00
RMM:   4    -0.116736144821E+04    0.42884E-01   -0.20475E-01  6418   0.426E-01    0.268E+00
RMM:   5    -0.116732723179E+04    0.34216E-01   -0.82567E-02  6303   0.274E-01    0.692E-01
RMM:   6    -0.116732398086E+04    0.32509E-02   -0.64359E-03  6341   0.846E-02    0.355E-01
RMM:   7    -0.116732311358E+04    0.86728E-03   -0.27051E-03  6305   0.403E-02    0.201E-01
RMM:   8    -0.116732294972E+04    0.16386E-03   -0.76370E-04  5535   0.260E-02    0.966E-02
RMM:   9    -0.116732293057E+04    0.19154E-04   -0.33351E-04  4595   0.183E-02
   4 F= -.11673229E+04 E0= -.11673229E+04  d E =-.126330E+01  mag=    10.0000
       N       E                     dE             d eps       ncg     rms          rms(c)
DAV:   1    -0.116788792031E+04   -0.56497E+00   -0.48164E+01  6464   0.592E+00    0.277E+00
RMM:   2    -0.116797251500E+04   -0.84595E-01   -0.13082E+00  6151   0.113E+00    0.179E+00
RMM:   3    -0.116795839839E+04    0.14117E-01   -0.90840E-02  6330   0.340E-01    0.921E-01
RMM:   4    -0.116794998146E+04    0.84169E-02   -0.30664E-02  6482   0.154E-01    0.515E-01
RMM:   5    -0.116794813132E+04    0.18501E-02   -0.60948E-03  6390   0.764E-02    0.319E-01
RMM:   6    -0.116794792963E+04    0.20169E-03   -0.11305E-03  6593   0.265E-02    0.189E-01
RMM:   7    -0.116794788121E+04    0.48426E-04   -0.43870E-04  5266   0.198E-02    0.107E-01
RMM:   8    -0.116794788154E+04   -0.33820E-06   -0.18468E-04  4330   0.152E-02
   5 F= -.11679479E+04 E0= -.11679479E+04  d E =-.624951E+00  mag=    10.0000
       N       E                     dE             d eps       ncg     rms          rms(c)
DAV:   1    -0.116823004561E+04   -0.28216E+00   -0.27457E+01  6400   0.480E+00    0.219E+00
RMM:   2    -0.116829013226E+04   -0.60087E-01   -0.78364E-01  6144   0.925E-01    0.168E+00
RMM:   3    -0.116828448678E+04    0.56455E-02   -0.52698E-02  6469   0.262E-01    0.927E-01
RMM:   4    -0.116828034756E+04    0.41392E-02   -0.17736E-02  6375   0.123E-01    0.437E-01
RMM:   5    -0.116827924179E+04    0.11058E-02   -0.42234E-03  6319   0.622E-02    0.249E-01
RMM:   6    -0.116827921446E+04    0.27328E-04   -0.58224E-04  5285   0.203E-02    0.108E-01
RMM:   7    -0.116827921797E+04   -0.35110E-05   -0.21863E-04  4285   0.140E-02    0.633E-02
RMM:   8    -0.116827923022E+04   -0.12251E-04   -0.10433E-04  3889   0.112E-02
   6 F= -.11682792E+04 E0= -.11682792E+04  d E =-.331349E+00  mag=    10.0000
       N       E                     dE             d eps       ncg     rms          rms(c)
DAV:   1    -0.116837641681E+04   -0.97199E-01   -0.50516E+01  6408   0.702E+00    0.304E+00
RMM:   2    -0.116851639033E+04   -0.13997E+00   -0.16956E+00  6144   0.144E+00    0.283E+00
RMM:   3    -0.116850396873E+04    0.12422E-01   -0.10495E-01  6880   0.390E-01    0.190E+00
RMM:   4    -0.116849749278E+04    0.64759E-02   -0.50903E-02  6557   0.209E-01    0.773E-01
RMM:   5    -0.116849393041E+04    0.35624E-02   -0.98090E-03  6980   0.936E-02    0.341E-01
RMM:   6    -0.116849384060E+04    0.89815E-04   -0.11657E-03  6636   0.320E-02    0.170E-01
RMM:   7    -0.116849383581E+04    0.47924E-05   -0.47290E-04  5656   0.190E-02    0.908E-02
RMM:   8    -0.116849384532E+04   -0.95122E-05   -0.19574E-04  4340   0.147E-02
   7 F= -.11684938E+04 E0= -.11684938E+04  d E =-.214615E+00  mag=    10.0000
       N       E                     dE             d eps       ncg     rms          rms(c)
DAV:   1    -0.116849425948E+04   -0.42367E-03   -0.76916E+00  6528   0.311E+00    0.109E+00
RMM:   2    -0.116851815805E+04   -0.23899E-01   -0.21136E-01  6144   0.568E-01    0.863E-01
RMM:   3    -0.116851892980E+04   -0.77175E-03   -0.10884E-02  6604   0.161E-01    0.539E-01
RMM:   4    -0.116851817706E+04    0.75274E-03   -0.37954E-03  6653   0.622E-02    0.228E-01
RMM:   5    -0.116851809745E+04    0.79609E-04   -0.11079E-03  6137   0.327E-02    0.122E-01
RMM:   6    -0.116851807980E+04    0.17646E-04   -0.12809E-04  3951   0.135E-02    0.467E-02
RMM:   7    -0.116851808044E+04   -0.63068E-06   -0.71350E-05  3626   0.989E-03    0.266E-02
RMM:   8    -0.116851808425E+04   -0.38132E-05   -0.43188E-05  3549   0.857E-03
   8 F= -.11685181E+04 E0= -.11685181E+04  d E =-.242389E-01  mag=    10.0000
       N       E                     dE             d eps       ncg     rms          rms(c)
DAV:   1    -0.116852021557E+04   -0.21351E-02   -0.56826E+00  6352   0.262E+00    0.794E-01
RMM:   2    -0.116853406770E+04   -0.13852E-01   -0.16450E-01  6144   0.481E-01    0.802E-01
RMM:   3    -0.116853335558E+04    0.71213E-03   -0.82413E-03  6570   0.130E-01    0.586E-01
RMM:   4    -0.116853295649E+04    0.39908E-03   -0.35178E-03  6004   0.590E-02    0.312E-01
RMM:   5    -0.116853253199E+04    0.42450E-03   -0.11092E-03  5655   0.340E-02    0.135E-01
RMM:   6    -0.116853252633E+04    0.56553E-05   -0.10676E-04  3887   0.126E-02    0.473E-02
RMM:   7    -0.116853251956E+04    0.67701E-05   -0.53461E-05  3604   0.898E-03    0.289E-02
RMM:   8    -0.116853251860E+04    0.96657E-06   -0.38647E-05  3516   0.763E-03
   9 F= -.11685325E+04 E0= -.11685325E+04  d E =-.144343E-01  mag=    10.0000
       N       E                     dE             d eps       ncg     rms          rms(c)
DAV:   1    -0.116853184678E+04    0.67279E-03   -0.13615E+01  6272   0.418E+00    0.966E-01
RMM:   2    -0.116856381411E+04   -0.31967E-01   -0.33279E-01  6146   0.710E-01    0.726E-01
RMM:   3    -0.116856405310E+04   -0.23898E-03   -0.16971E-02  6363   0.221E-01    0.465E-01
RMM:   4    -0.116856308998E+04    0.96311E-03   -0.47797E-03  7472   0.715E-02    0.262E-01
RMM:   5    -0.116856290236E+04    0.18763E-03   -0.16154E-03  6725   0.387E-02    0.199E-01
RMM:   6    -0.116856291157E+04   -0.92161E-05   -0.26762E-04  4762   0.174E-02    0.485E-02
RMM:   7    -0.116856291754E+04   -0.59640E-05   -0.11133E-04  3781   0.118E-02    0.293E-02
RMM:   8    -0.116856292220E+04   -0.46566E-05   -0.81583E-05  3642   0.965E-03
  10 F= -.11685629E+04 E0= -.11685629E+04  d E =-.304036E-01  mag=    10.0000
       N       E                     dE             d eps       ncg     rms          rms(c)
DAV:   1    -0.116854086128E+04    0.22056E-01   -0.18811E+01  6320   0.493E+00    0.103E+00
RMM:   2    -0.116858443494E+04   -0.43574E-01   -0.45288E-01  6149   0.818E-01    0.754E-01
RMM:   3    -0.116858461580E+04   -0.18086E-03   -0.22214E-02  6373   0.255E-01    0.495E-01
RMM:   4    -0.116858343973E+04    0.11761E-02   -0.62242E-03  7784   0.810E-02    0.280E-01
RMM:   5    -0.116858329112E+04    0.14861E-03   -0.18659E-03  7286   0.400E-02    0.152E-01
RMM:   6    -0.116858332456E+04   -0.33447E-04   -0.34894E-04  4869   0.178E-02    0.448E-02
RMM:   7    -0.116858333233E+04   -0.77683E-05   -0.15354E-04  4056   0.129E-02    0.293E-02
RMM:   8    -0.116858334012E+04   -0.77924E-05   -0.11625E-04  3839   0.106E-02
  11 F= -.11685833E+04 E0= -.11685833E+04  d E =-.204179E-01  mag=    10.0000
       N       E                     dE             d eps       ncg     rms          rms(c)
DAV:   1    -0.116858687622E+04   -0.35439E-02   -0.39636E+00  6464   0.224E+00    0.531E-01
RMM:   2    -0.116859595545E+04   -0.90792E-02   -0.10663E-01  6148   0.396E-01    0.549E-01
RMM:   3    -0.116859561972E+04    0.33573E-03   -0.50560E-03  6530   0.112E-01    0.413E-01
RMM:   4    -0.116859542343E+04    0.19629E-03   -0.18605E-03  6279   0.436E-02    0.247E-01
RMM:   5    -0.116859517543E+04    0.24801E-03   -0.78984E-04  5743   0.278E-02    0.109E-01
RMM:   6    -0.116859517563E+04   -0.19769E-06   -0.77226E-05  3706   0.122E-02    0.334E-02
RMM:   7    -0.116859517224E+04    0.33876E-05   -0.48466E-05  3542   0.839E-03    0.214E-02
RMM:   8    -0.116859517128E+04    0.95389E-06   -0.33746E-05  3453   0.773E-03
  12 F= -.11685952E+04 E0= -.11685952E+04  d E =-.118312E-01  mag=    10.0000
       N       E                     dE             d eps       ncg     rms          rms(c)
DAV:   1    -0.116859148023E+04    0.36920E-02   -0.68457E+00  6368   0.298E+00    0.494E-01
RMM:   2    -0.116860614343E+04   -0.14663E-01   -0.16082E-01  6149   0.485E-01    0.324E-01
RMM:   3    -0.116860599699E+04    0.14644E-03   -0.76214E-03  6185   0.154E-01    0.217E-01
RMM:   4    -0.116860566459E+04    0.33240E-03   -0.23534E-03  7092   0.492E-02    0.119E-01
RMM:   5    -0.116860562390E+04    0.40682E-04   -0.47001E-04  5455   0.224E-02    0.540E-02
RMM:   6    -0.116860563528E+04   -0.11378E-04   -0.11379E-04  3762   0.123E-02    0.206E-02
RMM:   7    -0.116860564037E+04   -0.50919E-05   -0.61183E-05  3604   0.971E-03    0.136E-02
RMM:   8    -0.116860564431E+04   -0.39376E-05   -0.49050E-05  3484   0.765E-03
  13 F= -.11686056E+04 E0= -.11686056E+04  d E =-.104730E-01  mag=    10.0000
       N       E                     dE             d eps       ncg     rms          rms(c)
DAV:   1    -0.116860499919E+04    0.64118E-03   -0.35323E+00  6440   0.215E+00    0.358E-01
RMM:   2    -0.116861254583E+04   -0.75466E-02   -0.83020E-02  6150   0.350E-01    0.229E-01
RMM:   3    -0.116861247003E+04    0.75801E-04   -0.40264E-03  6202   0.112E-01    0.153E-01
RMM:   4    -0.116861229229E+04    0.17774E-03   -0.12111E-03  6590   0.351E-02    0.801E-02
RMM:   5    -0.116861227162E+04    0.20663E-04   -0.25787E-04  4478   0.188E-02    0.513E-02
RMM:   6    -0.116861227937E+04   -0.77434E-05   -0.74571E-05  3581   0.114E-02    0.196E-02
RMM:   7    -0.116861228368E+04   -0.43186E-05   -0.45622E-05  3492   0.866E-03    0.136E-02
RMM:   8    -0.116861228628E+04   -0.25973E-05   -0.31132E-05  3376   0.753E-03
  14 F= -.11686123E+04 E0= -.11686123E+04  d E =-.664197E-02  mag=    10.0000
       N       E                     dE             d eps       ncg     rms          rms(c)
DAV:   1    -0.116860993657E+04    0.23471E-02   -0.39207E+00  6448   0.227E+00    0.371E-01
RMM:   2    -0.116861843977E+04   -0.85032E-02   -0.91813E-02  6150   0.369E-01    0.230E-01
RMM:   3    -0.116861838646E+04    0.53316E-04   -0.44524E-03  6139   0.120E-01    0.151E-01
RMM:   4    -0.116861820137E+04    0.18509E-03   -0.13296E-03  6669   0.366E-02    0.743E-02
RMM:   5    -0.116861820112E+04    0.25441E-06   -0.24186E-04  4281   0.178E-02    0.246E-02
RMM:   6    -0.116861820804E+04   -0.69234E-05   -0.66632E-05  3583   0.108E-02    0.144E-02
RMM:   7    -0.116861821277E+04   -0.47359E-05   -0.52293E-05  3475   0.883E-03    0.911E-03
RMM:   8    -0.116861821519E+04   -0.24162E-05   -0.29636E-05  3353   0.706E-03
  15 F= -.11686182E+04 E0= -.11686182E+04  d E =-.592891E-02  mag=    10.0000
       N       E                     dE             d eps       ncg     rms          rms(c)
DAV:   1    -0.116861607223E+04    0.21405E-02   -0.30277E+00  6440   0.201E+00    0.373E-01
RMM:   2    -0.116862300530E+04   -0.69331E-02   -0.71651E-02  6162   0.331E-01    0.219E-01
RMM:   3    -0.116862306583E+04   -0.60528E-04   -0.35324E-03  6173   0.108E-01    0.136E-01
RMM:   4    -0.116862293144E+04    0.13439E-03   -0.92001E-04  6445   0.309E-02    0.759E-02
RMM:   5    -0.116862291455E+04    0.16891E-04   -0.23905E-04  4202   0.182E-02    0.445E-02
RMM:   6    -0.116862292256E+04   -0.80113E-05   -0.72655E-05  3570   0.117E-02    0.148E-02
RMM:   7    -0.116862292603E+04   -0.34679E-05   -0.36251E-05  3460   0.846E-03    0.103E-02
RMM:   8    -0.116862292848E+04   -0.24488E-05   -0.28212E-05  3336   0.740E-03
  16 F= -.11686229E+04 E0= -.11686229E+04  d E =-.471329E-02  mag=    10.0000
       N       E                     dE             d eps       ncg     rms          rms(c)
DAV:   1    -0.116862184362E+04    0.10824E-02   -0.19596E+00  6440   0.162E+00    0.274E-01
RMM:   2    -0.116862617516E+04   -0.43315E-02   -0.46426E-02  6152   0.265E-01    0.163E-01
RMM:   3    -0.116862616761E+04    0.75486E-05   -0.22910E-03  6085   0.872E-02    0.106E-01
RMM:   4    -0.116862608079E+04    0.86818E-04   -0.63444E-04  5749   0.257E-02    0.587E-02
RMM:   5    -0.116862607615E+04    0.46385E-05   -0.13158E-04  3691   0.154E-02    0.285E-02
RMM:   6    -0.116862608213E+04   -0.59796E-05   -0.49359E-05  3508   0.990E-03    0.143E-02
RMM:   7    -0.116862608518E+04   -0.30438E-05   -0.29851E-05  3368   0.764E-03    0.997E-03
RMM:   8    -0.116862608704E+04   -0.18607E-05   -0.20295E-05  3265   0.628E-03
  17 F= -.11686261E+04 E0= -.11686261E+04  d E =-.315856E-02  mag=    10.0000
       N       E                     dE             d eps       ncg     rms          rms(c)
DAV:   1    -0.116862590927E+04    0.17591E-03   -0.11177E+00  6520   0.123E+00    0.212E-01
RMM:   2    -0.116862837857E+04   -0.24693E-02   -0.26716E-02  6165   0.202E-01    0.127E-01
RMM:   3    -0.116862837213E+04    0.64393E-05   -0.13312E-03  5932   0.667E-02    0.825E-02
RMM:   4    -0.116862831904E+04    0.53086E-04   -0.35716E-04  4466   0.201E-02    0.487E-02
RMM:   5    -0.116862831570E+04    0.33440E-05   -0.76477E-05  3561   0.128E-02    0.339E-02
RMM:   6    -0.116862831999E+04   -0.42913E-05   -0.36136E-05  3451   0.849E-03    0.125E-02
RMM:   7    -0.116862832211E+04   -0.21189E-05   -0.20268E-05  3311   0.677E-03    0.109E-02
RMM:   8    -0.116862832347E+04   -0.13581E-05   -0.14038E-05  3167   0.515E-03
  18 F= -.11686283E+04 E0= -.11686283E+04  d E =-.223643E-02  mag=    10.0000
       N       E                     dE             d eps       ncg     rms          rms(c)
DAV:   1    -0.116862660767E+04    0.17144E-02   -0.18525E+00  6392   0.158E+00    0.272E-01
RMM:   2    -0.116863071490E+04   -0.41072E-02   -0.44034E-02  6159   0.259E-01    0.159E-01
RMM:   3    -0.116863070571E+04    0.91924E-05   -0.21396E-03  6076   0.842E-02    0.103E-01
RMM:   4    -0.116863062523E+04    0.80482E-04   -0.58775E-04  5465   0.248E-02    0.596E-02
RMM:   5    -0.116863061806E+04    0.71708E-05   -0.11684E-04  3626   0.150E-02    0.393E-02
RMM:   6    -0.116863062416E+04   -0.60983E-05   -0.49134E-05  3496   0.100E-02    0.151E-02
RMM:   7    -0.116863062718E+04   -0.30187E-05   -0.27983E-05  3363   0.760E-03    0.113E-02
RMM:   8    -0.116863062891E+04   -0.17341E-05   -0.18719E-05  3245   0.620E-03
  19 F= -.11686306E+04 E0= -.11686306E+04  d E =-.230544E-02  mag=    10.0000
       N       E                     dE             d eps       ncg     rms          rms(c)
DAV:   1    -0.116862992173E+04    0.70544E-03   -0.99088E-01  6384   0.115E+00    0.197E-01
RMM:   2    -0.116863211212E+04   -0.21904E-02   -0.23699E-02  6175   0.190E-01    0.119E-01
RMM:   3    -0.116863210135E+04    0.10770E-04   -0.11640E-03  5811   0.621E-02    0.771E-02
RMM:   4    -0.116863205430E+04    0.47048E-04   -0.30746E-04  4248   0.187E-02    0.423E-02
RMM:   5    -0.116863205341E+04    0.89365E-06   -0.70072E-05  3553   0.121E-02    0.192E-02
RMM:   6    -0.116863205706E+04   -0.36491E-05   -0.30637E-05  3428   0.780E-03    0.109E-02
RMM:   7    -0.116863205888E+04   -0.18281E-05   -0.17927E-05  3280   0.618E-03    0.749E-03
RMM:   8    -0.116863206006E+04   -0.11771E-05   -0.12267E-05  3074   0.481E-03
  20 F= -.11686321E+04 E0= -.11686321E+04  d E =-.143115E-02  mag=    10.0000
