       N       E                     dE             d eps       ncg     rms          rms(c)
DAV:   1     0.120819975159E+05    0.12082E+05   -0.42677E+05  6160   0.132E+03
DAV:   2     0.692162646770E+03   -0.11390E+05   -0.10177E+05  6152   0.380E+02
DAV:   3    -0.136959614810E+04   -0.20618E+04   -0.19812E+04  6600   0.167E+02
DAV:   4    -0.150906626855E+04   -0.13947E+03   -0.13722E+03  8088   0.459E+01
DAV:   5    -0.151807819869E+04   -0.90119E+01   -0.89716E+01 11088   0.108E+01    0.180E+02
RMM:   6    -0.117255984629E+04    0.34552E+03   -0.16403E+03  6262   0.356E+01    0.123E+02
RMM:   7    -0.115610357198E+04    0.16456E+02   -0.60762E+01  6394   0.119E+01    0.731E+01
RMM:   8    -0.115928598948E+04   -0.31824E+01   -0.20231E+01  7035   0.494E+00    0.365E+01
RMM:   9    -0.116380819045E+04   -0.45222E+01   -0.71377E+00  6524   0.319E+00    0.109E+01
RMM:  10    -0.116493036285E+04   -0.11222E+01   -0.19080E+00  6929   0.145E+00    0.717E+00
RMM:  11    -0.116595279514E+04   -0.10224E+01   -0.11372E+00  7390   0.875E-01    0.492E+00
RMM:  12    -0.116665738639E+04   -0.70459E+00   -0.50453E-01  7343   0.663E-01    0.268E+00
RMM:  13    -0.116704590965E+04   -0.38852E+00   -0.35941E-01  6923   0.541E-01    0.139E+00
RMM:  14    -0.116713095135E+04   -0.85042E-01   -0.15327E-01  7205   0.362E-01    0.762E-01
RMM:  15    -0.116714446822E+04   -0.13517E-01   -0.48234E-02  7624   0.201E-01    0.610E-01
RMM:  16    -0.116714666285E+04   -0.21946E-02   -0.12622E-02  8111   0.938E-02    0.360E-01
RMM:  17    -0.116714726014E+04   -0.59730E-03   -0.58989E-03  7716   0.644E-02    0.171E-01
RMM:  18    -0.116714735060E+04   -0.90454E-04   -0.17810E-03  6711   0.320E-02    0.855E-02
RMM:  19    -0.116714744569E+04   -0.95091E-04   -0.97579E-04  5343   0.195E-02
   1 F= -.11671474E+04 E0= -.11671474E+04  d E =-.116715E+04  mag=    10.0061
       N       E                     dE             d eps       ncg     rms          rms(c)
DAV:   1    -0.115956512828E+04    0.75822E+01   -0.56243E+02  7072   0.253E+01    0.154E+01
RMM:   2    -0.116827195973E+04   -0.87068E+01   -0.30596E+01  6191   0.657E+00    0.231E+01
RMM:   3    -0.116834860470E+04   -0.76645E-01   -0.17273E+00  6384   0.221E+00    0.115E+01
RMM:   4    -0.116814848578E+04    0.20012E+00   -0.80734E-01  7285   0.911E-01    0.649E+00
RMM:   5    -0.116800791009E+04    0.14058E+00   -0.34260E-01  6281   0.583E-01    0.358E+00
RMM:   6    -0.116801266897E+04   -0.47589E-02   -0.10233E-01  6832   0.361E-01    0.151E+00
RMM:   7    -0.116801224003E+04    0.42894E-03   -0.14717E-02  9164   0.104E-01    0.904E-01
RMM:   8    -0.116801078916E+04    0.14509E-02   -0.49951E-03  8075   0.628E-02    0.679E-01
RMM:   9    -0.116801053915E+04    0.25002E-03   -0.30203E-03  7105   0.478E-02    0.184E-01
RMM:  10    -0.116801057743E+04   -0.38280E-04   -0.53895E-04  6119   0.253E-02
   2 F= -.11680106E+04 E0= -.11680106E+04  d E =-.863132E+00  mag=    10.0003
       N       E                     dE             d eps       ncg     rms          rms(c)
DAV:   1    -0.116825054349E+04   -0.24000E+00   -0.68619E+01  6800   0.890E+00    0.584E+00
RMM:   2    -0.116849604775E+04   -0.24550E+00   -0.25333E+00  6147   0.201E+00    0.554E+00
RMM:   3    -0.116850936268E+04   -0.13315E-01   -0.14605E-01  6562   0.581E-01    0.363E+00
RMM:   4    -0.116848789805E+04    0.21465E-01   -0.67779E-02  6444   0.282E-01    0.190E+00
RMM:   5    -0.116848333719E+04    0.45609E-02   -0.33597E-02  6267   0.192E-01    0.844E-01
RMM:   6    -0.116848267290E+04    0.66429E-03   -0.56380E-03  6438   0.775E-02    0.374E-01
RMM:   7    -0.116848207545E+04    0.59745E-03   -0.11797E-03  5802   0.308E-02    0.188E-01
RMM:   8    -0.116848202681E+04    0.48643E-04   -0.41362E-04  4991   0.208E-02
   3 F= -.11684820E+04 E0= -.11684820E+04  d E =-.133458E+01  mag=    10.0000
       N       E                     dE             d eps       ncg     rms          rms(c)
DAV:   1    -0.116816206592E+04    0.32001E+00   -0.13228E+02  6424   0.123E+01    0.621E+00
RMM:   2    -0.116881682084E+04   -0.65475E+00   -0.37886E+00  6145   0.240E+00    0.552E+00
RMM:   3    -0.116888591897E+04   -0.69098E-01   -0.18055E-01  6253   0.753E-01    0.219E+00
RMM:   4    -0.116887043919E+04    0.15480E-01   -0.50764E-02  6965   0.238E-01    0.128E+00
RMM:   5    -0.116886170465E+04    0.87345E-02   -0.31647E-02  6692   0.180E-01    0.115E+00
RMM:   6    -0.116886196350E+04   -0.25885E-03   -0.10758E-02  7190   0.112E-01    0.359E-01
RMM:   7    -0.116886165672E+04    0.30678E-03   -0.13747E-03  6764   0.355E-02    0.238E-01
RMM:   8    -0.116886155661E+04    0.10011E-03   -0.76371E-04  5830   0.254E-02    0.816E-02
RMM:   9    -0.116886156075E+04   -0.41385E-05   -0.20369E-04  4308   0.167E-02
   4 F= -.11688616E+04 E0= -.11688616E+04  d E =-.379534E+00  mag=    10.0000
       N       E                     dE             d eps       ncg     rms          rms(c)
DAV:   1    -0.116885961604E+04    0.19406E-02   -0.10048E+00  7056   0.108E+00    0.534E-01
RMM:   2    -0.116886411399E+04   -0.44979E-02   -0.27116E-02  6146   0.201E-01    0.371E-01
RMM:   3    -0.116886460467E+04   -0.49068E-03   -0.13365E-03  6023   0.628E-02    0.175E-01
RMM:   4    -0.116886444697E+04    0.15770E-03   -0.54317E-04  5205   0.245E-02    0.855E-02
RMM:   5    -0.116886442611E+04    0.20857E-04   -0.12303E-04  4013   0.148E-02    0.793E-02
RMM:   6    -0.116886442863E+04   -0.25176E-05   -0.43214E-05  3643   0.904E-03    0.195E-02
RMM:   7    -0.116886442885E+04   -0.22283E-06   -0.15347E-05  3501   0.602E-03    0.165E-02
RMM:   8    -0.116886442959E+04   -0.73366E-06   -0.97308E-06  3355   0.426E-03
   5 F= -.11688644E+04 E0= -.11688644E+04  d E =-.382403E+00  mag=    10.0000
       N       E                     dE             d eps       ncg     rms          rms(c)
DAV:   1    -0.116885102452E+04    0.13404E-01   -0.53587E+01  6336   0.834E+00    0.233E+00
RMM:   2    -0.116898032606E+04   -0.12930E+00   -0.15768E+00  6151   0.158E+00    0.214E+00
RMM:   3    -0.116897881765E+04    0.15084E-02   -0.78725E-02  6594   0.472E-01    0.142E+00
RMM:   4    -0.116897094652E+04    0.78711E-02   -0.30212E-02  6746   0.182E-01    0.856E-01
RMM:   5    -0.116896779884E+04    0.31477E-02   -0.10532E-02  6714   0.108E-01    0.356E-01
RMM:   6    -0.116896787220E+04   -0.73363E-04   -0.11907E-03  6939   0.366E-02    0.139E-01
RMM:   7    -0.116896783404E+04    0.38164E-04   -0.41258E-04  5422   0.174E-02    0.900E-02
RMM:   8    -0.116896782922E+04    0.48144E-05   -0.25249E-04  4527   0.171E-02
   6 F= -.11689678E+04 E0= -.11689678E+04  d E =-.103400E+00  mag=    10.0000
       N       E                     dE             d eps       ncg     rms          rms(c)
DAV:   1    -0.116896785608E+04   -0.22046E-04   -0.37456E-01  6992   0.696E-01    0.198E-01
RMM:   2    -0.116896876460E+04   -0.90852E-03   -0.10790E-02  6073   0.131E-01    0.174E-01
RMM:   3    -0.116896874777E+04    0.16827E-04   -0.45247E-04  4826   0.390E-02    0.114E-01
RMM:   4    -0.116896868992E+04    0.57854E-04   -0.17925E-04  3840   0.164E-02    0.672E-02
RMM:   5    -0.116896867656E+04    0.13352E-04   -0.56836E-05  3521   0.102E-02    0.386E-02
RMM:   6    -0.116896867738E+04   -0.82077E-06   -0.12342E-05  3207   0.574E-03    0.136E-02
RMM:   7    -0.116896867744E+04   -0.56287E-07   -0.43522E-06  2579   0.306E-03    0.872E-03
RMM:   8    -0.116896867753E+04   -0.91750E-07   -0.24661E-06  2294   0.273E-03
   7 F= -.11689687E+04 E0= -.11689687E+04  d E =-.104248E+00  mag=    10.0000
       N       E                     dE             d eps       ncg     rms          rms(c)
DAV:   1    -0.116897422639E+04   -0.55490E-02   -0.17362E+01  6392   0.489E+00    0.122E+00
RMM:   2    -0.116901337076E+04   -0.39144E-01   -0.46720E-01  6153   0.880E-01    0.109E+00
RMM:   3    -0.116901289168E+04    0.47908E-03   -0.23837E-02  6451   0.278E-01    0.718E-01
RMM:   4    -0.116901119540E+04    0.16963E-02   -0.82511E-03  6983   0.967E-02    0.388E-01
RMM:   5    -0.116901066510E+04    0.53030E-03   -0.28944E-03  6789   0.535E-02    0.171E-01
RMM:   6    -0.116901064791E+04    0.17196E-04   -0.31265E-04  4797   0.200E-02    0.619E-02
RMM:   7    -0.116901064889E+04   -0.98182E-06   -0.15411E-04  4098   0.128E-02    0.385E-02
RMM:   8    -0.116901065220E+04   -0.33144E-05   -0.97906E-05  3760   0.115E-02
   8 F= -.11690107E+04 E0= -.11690107E+04  d E =-.419747E-01  mag=    10.0000
       N       E                     dE             d eps       ncg     rms          rms(c)
DAV:   1    -0.116900872089E+04    0.19280E-02   -0.26183E+00  6448   0.190E+00    0.471E-01
RMM:   2    -0.116901463632E+04   -0.59154E-02   -0.70743E-02  6156   0.342E-01    0.425E-01
RMM:   3    -0.116901456340E+04    0.72911E-04   -0.37112E-03  6439   0.109E-01    0.281E-01
RMM:   4    -0.116901431167E+04    0.25173E-03   -0.13655E-03  6296   0.385E-02    0.151E-01
RMM:   5    -0.116901422595E+04    0.85726E-04   -0.44557E-04  5246   0.226E-02    0.698E-02
RMM:   6    -0.116901422613E+04   -0.18920E-06   -0.60532E-05  3672   0.114E-02    0.254E-02
RMM:   7    -0.116901422770E+04   -0.15629E-05   -0.35329E-05  3518   0.737E-03    0.155E-02
RMM:   8    -0.116901422885E+04   -0.11525E-05   -0.22310E-05  3480   0.672E-03
   9 F= -.11690142E+04 E0= -.11690142E+04  d E =-.455513E-01  mag=    10.0000
       N       E                     dE             d eps       ncg     rms          rms(c)
DAV:   1    -0.116902232120E+04   -0.80935E-02   -0.10886E+01  6320   0.389E+00    0.909E-01
RMM:   2    -0.116904607573E+04   -0.23755E-01   -0.28291E-01  6183   0.669E-01    0.657E-01
RMM:   3    -0.116904577165E+04    0.30409E-03   -0.14388E-02  6342   0.225E-01    0.419E-01
RMM:   4    -0.116904495670E+04    0.81495E-03   -0.50473E-03  7424   0.749E-02    0.247E-01
RMM:   5    -0.116904482060E+04    0.13610E-03   -0.11047E-03  6926   0.333E-02    0.924E-02
RMM:   6    -0.116904484285E+04   -0.22243E-04   -0.27335E-04  4522   0.157E-02    0.411E-02
RMM:   7    -0.116904485047E+04   -0.76208E-05   -0.12633E-04  3853   0.127E-02    0.317E-02
RMM:   8    -0.116904485689E+04   -0.64217E-05   -0.80111E-05  3653   0.922E-03
  10 F= -.11690449E+04 E0= -.11690449E+04  d E =-.306280E-01  mag=    10.0000
       N       E                     dE             d eps       ncg     rms          rms(c)
DAV:   1    -0.116903588144E+04    0.89690E-02   -0.89528E+00  6320   0.353E+00    0.821E-01
RMM:   2    -0.116905544745E+04   -0.19566E-01   -0.23305E-01  6183   0.606E-01    0.591E-01
RMM:   3    -0.116905518905E+04    0.25840E-03   -0.11923E-02  6347   0.203E-01    0.376E-01
RMM:   4    -0.116905451933E+04    0.66972E-03   -0.41905E-03  7503   0.678E-02    0.219E-01
RMM:   5    -0.116905441281E+04    0.10653E-03   -0.93351E-04  6727   0.301E-02    0.827E-02
RMM:   6    -0.116905443079E+04   -0.17987E-04   -0.22500E-04  4290   0.147E-02    0.357E-02
RMM:   7    -0.116905443827E+04   -0.74809E-05   -0.11481E-04  3821   0.124E-02    0.275E-02
RMM:   8    -0.116905444400E+04   -0.57280E-05   -0.71423E-05  3633   0.887E-03
  11 F= -.11690544E+04 E0= -.11690544E+04  d E =-.402152E-01  mag=    10.0000
       N       E                     dE             d eps       ncg     rms          rms(c)
DAV:   1    -0.116905423297E+04    0.20530E-03   -0.10287E+01  6392   0.377E+00    0.792E-01
RMM:   2    -0.116907657370E+04   -0.22341E-01   -0.27443E-01  6156   0.667E-01    0.604E-01
RMM:   3    -0.116907632348E+04    0.25022E-03   -0.13904E-02  6471   0.211E-01    0.407E-01
RMM:   4    -0.116907559335E+04    0.73013E-03   -0.37898E-03  7949   0.653E-02    0.256E-01
RMM:   5    -0.116907534631E+04    0.24704E-03   -0.14427E-03  6998   0.350E-02    0.140E-01
RMM:   6    -0.116907535657E+04   -0.10259E-04   -0.25381E-04  4601   0.179E-02    0.484E-02
RMM:   7    -0.116907536139E+04   -0.48220E-05   -0.10847E-04  3789   0.122E-02    0.250E-02
RMM:   8    -0.116907536599E+04   -0.45959E-05   -0.74562E-05  3640   0.952E-03
  12 F= -.11690754E+04 E0= -.11690754E+04  d E =-.209220E-01  mag=    10.0000
       N       E                     dE             d eps       ncg     rms          rms(c)
DAV:   1    -0.116907168329E+04    0.36781E-02   -0.33459E+00  6512   0.215E+00    0.451E-01
RMM:   2    -0.116907897164E+04   -0.72884E-02   -0.89446E-02  6163   0.381E-01    0.344E-01
RMM:   3    -0.116907889320E+04    0.78439E-04   -0.46448E-03  6438   0.121E-01    0.233E-01
RMM:   4    -0.116907865650E+04    0.23670E-03   -0.12676E-03  7147   0.378E-02    0.147E-01
RMM:   5    -0.116907857371E+04    0.82795E-04   -0.47470E-04  5537   0.219E-02    0.816E-02
RMM:   6    -0.116907857834E+04   -0.46351E-05   -0.89315E-05  3651   0.125E-02    0.303E-02
RMM:   7    -0.116907858099E+04   -0.26475E-05   -0.43955E-05  3554   0.905E-03    0.157E-02
RMM:   8    -0.116907858323E+04   -0.22438E-05   -0.29371E-05  3459   0.720E-03
  13 F= -.11690786E+04 E0= -.11690786E+04  d E =-.241392E-01  mag=    10.0000
       N       E                     dE             d eps       ncg     rms          rms(c)
DAV:   1    -0.116907332340E+04    0.52576E-02   -0.87606E+00  6400   0.346E+00    0.803E-01
RMM:   2    -0.116909328070E+04   -0.19957E-01   -0.22380E-01  6169   0.602E-01    0.581E-01
RMM:   3    -0.116909332296E+04   -0.42265E-04   -0.11035E-02  6405   0.192E-01    0.364E-01
RMM:   4    -0.116909265103E+04    0.67193E-03   -0.31997E-03  7824   0.600E-02    0.199E-01
RMM:   5    -0.116909251969E+04    0.13134E-03   -0.12203E-03  6912   0.321E-02    0.928E-02
RMM:   6    -0.116909251806E+04    0.16258E-05   -0.16731E-04  4026   0.153E-02    0.425E-02
RMM:   7    -0.116909252192E+04   -0.38563E-05   -0.79043E-05  3670   0.111E-02    0.212E-02
RMM:   8    -0.116909252604E+04   -0.41168E-05   -0.57998E-05  3566   0.907E-03
  14 F= -.11690925E+04 E0= -.11690925E+04  d E =-.139428E-01  mag=    10.0000
       N       E                     dE             d eps       ncg     rms          rms(c)
DAV:   1    -0.116908983849E+04    0.26834E-02   -0.20196E+00  6528   0.166E+00    0.382E-01
RMM:   2    -0.116909445875E+04   -0.46203E-02   -0.51772E-02  6171   0.290E-01    0.276E-01
RMM:   3    -0.116909446946E+04   -0.10703E-04   -0.26736E-03  6316   0.938E-02    0.175E-01
RMM:   4    -0.116909431251E+04    0.15695E-03   -0.78548E-04  6209   0.299E-02    0.947E-02
RMM:   5    -0.116909428028E+04    0.32227E-04   -0.24603E-04  4376   0.187E-02    0.490E-02
RMM:   6    -0.116909428456E+04   -0.42812E-05   -0.59466E-05  3570   0.119E-02    0.228E-02
RMM:   7    -0.116909428749E+04   -0.29230E-05   -0.35773E-05  3481   0.774E-03    0.117E-02
RMM:   8    -0.116909428927E+04   -0.17877E-05   -0.21968E-05  3370   0.727E-03
  15 F= -.11690943E+04 E0= -.11690943E+04  d E =-.157060E-01  mag=    10.0000
       N       E                     dE             d eps       ncg     rms          rms(c)
DAV:   1    -0.116909204269E+04    0.22448E-02   -0.49947E+00  6416   0.261E+00    0.586E-01
RMM:   2    -0.116910342317E+04   -0.11380E-01   -0.12501E-01  6172   0.443E-01    0.420E-01
RMM:   3    -0.116910346741E+04   -0.44237E-04   -0.61834E-03  6293   0.145E-01    0.265E-01
RMM:   4    -0.116910314179E+04    0.32562E-03   -0.20320E-03  7340   0.469E-02    0.144E-01
RMM:   5    -0.116910309637E+04    0.45426E-04   -0.50283E-04  5597   0.224E-02    0.786E-02
RMM:   6    -0.116910310140E+04   -0.50290E-05   -0.91867E-05  3669   0.119E-02    0.224E-02
RMM:   7    -0.116910310523E+04   -0.38321E-05   -0.49621E-05  3573   0.929E-03    0.148E-02
RMM:   8    -0.116910310839E+04   -0.31611E-05   -0.36500E-05  3443   0.705E-03
  16 F= -.11691031E+04 E0= -.11691031E+04  d E =-.881912E-02  mag=    10.0000
       N       E                     dE             d eps       ncg     rms          rms(c)
DAV:   1    -0.116910037796E+04    0.27273E-02   -0.19385E+00  6456   0.163E+00    0.365E-01
RMM:   2    -0.116910482535E+04   -0.44474E-02   -0.48841E-02  6180   0.277E-01    0.262E-01
RMM:   3    -0.116910483871E+04   -0.13364E-04   -0.24465E-03  6268   0.905E-02    0.165E-01
RMM:   4    -0.116910470853E+04    0.13018E-03   -0.77408E-04  6085   0.296E-02    0.883E-02
RMM:   5    -0.116910468897E+04    0.19554E-04   -0.17116E-04  4049   0.170E-02    0.507E-02
RMM:   6    -0.116910469439E+04   -0.54199E-05   -0.52325E-05  3555   0.108E-02    0.175E-02
RMM:   7    -0.116910469752E+04   -0.31237E-05   -0.32836E-05  3444   0.779E-03    0.131E-02
RMM:   8    -0.116910469937E+04   -0.18539E-05   -0.20768E-05  3299   0.665E-03
  17 F= -.11691047E+04 E0= -.11691047E+04  d E =-.104101E-01  mag=    10.0000
       N       E                     dE             d eps       ncg     rms          rms(c)
DAV:   1    -0.116910377826E+04    0.91926E-03   -0.36693E+00  6392   0.222E+00    0.451E-01
RMM:   2    -0.116911210283E+04   -0.83246E-02   -0.90284E-02  6168   0.374E-01    0.327E-01
RMM:   3    -0.116911208627E+04    0.16557E-04   -0.44227E-03  6195   0.122E-01    0.208E-01
RMM:   4    -0.116911188082E+04    0.20546E-03   -0.12728E-03  6879   0.374E-02    0.118E-01
RMM:   5    -0.116911183673E+04    0.44082E-04   -0.40970E-04  5114   0.215E-02    0.889E-02
RMM:   6    -0.116911184101E+04   -0.42726E-05   -0.88246E-05  3643   0.128E-02    0.251E-02
RMM:   7    -0.116911184450E+04   -0.34958E-05   -0.42786E-05  3523   0.860E-03    0.146E-02
RMM:   8    -0.116911184674E+04   -0.22341E-05   -0.28032E-05  3387   0.713E-03
  18 F= -.11691118E+04 E0= -.11691118E+04  d E =-.714737E-02  mag=    10.0000
       N       E                     dE             d eps       ncg     rms          rms(c)
DAV:   1    -0.116909521937E+04    0.16625E-01   -0.95012E+00  6368   0.358E+00    0.727E-01
RMM:   2    -0.116911677932E+04   -0.21560E-01   -0.23385E-01  6166   0.601E-01    0.527E-01
RMM:   3    -0.116911673031E+04    0.49002E-04   -0.11361E-02  6270   0.197E-01    0.335E-01
RMM:   4    -0.116911620001E+04    0.53031E-03   -0.33111E-03  7878   0.600E-02    0.192E-01
RMM:   5    -0.116911609170E+04    0.10831E-03   -0.10915E-03  6713   0.309E-02    0.151E-01
RMM:   6    -0.116911609809E+04   -0.63954E-05   -0.20937E-04  4306   0.157E-02    0.356E-02
RMM:   7    -0.116911610256E+04   -0.44636E-05   -0.73381E-05  3697   0.115E-02    0.210E-02
RMM:   8    -0.116911610780E+04   -0.52472E-05   -0.69489E-05  3647   0.864E-03
  19 F= -.11691161E+04 E0= -.11691161E+04  d E =-.114084E-01  mag=    10.0000
       N       E                     dE             d eps       ncg     rms          rms(c)
DAV:   1    -0.116911236856E+04    0.37340E-02   -0.42462E+00  6440   0.237E+00    0.465E-01
RMM:   2    -0.116912141427E+04   -0.90457E-02   -0.10424E-01  6158   0.400E-01    0.368E-01
RMM:   3    -0.116912127574E+04    0.13853E-03   -0.51426E-03  6224   0.131E-01    0.240E-01
RMM:   4    -0.116912100168E+04    0.27406E-03   -0.17140E-03  6837   0.426E-02    0.134E-01
RMM:   5    -0.116912093347E+04    0.68209E-04   -0.48007E-04  5588   0.225E-02    0.439E-02
RMM:   6    -0.116912093648E+04   -0.30076E-05   -0.72691E-05  3656   0.115E-02    0.247E-02
RMM:   7    -0.116912094036E+04   -0.38854E-05   -0.54491E-05  3556   0.846E-03    0.168E-02
RMM:   8    -0.116912094230E+04   -0.19381E-05   -0.33595E-05  3444   0.733E-03
  20 F= -.11691209E+04 E0= -.11691209E+04  d E =-.483450E-02  mag=    10.0000
       N       E                     dE             d eps       ncg     rms          rms(c)
DAV:   1    -0.116912060309E+04    0.33727E-03   -0.27741E-01  6656   0.607E-01    0.118E-01
RMM:   2    -0.116912120906E+04   -0.60597E-03   -0.69699E-03  6166   0.103E-01    0.936E-02
RMM:   3    -0.116912119268E+04    0.16381E-04   -0.31442E-04  4297   0.330E-02    0.621E-02
RMM:   4    -0.116912117349E+04    0.19191E-04   -0.11059E-04  3569   0.123E-02    0.348E-02
RMM:   5    -0.116912117159E+04    0.19074E-05   -0.36261E-05  3463   0.849E-03    0.262E-02
RMM:   6    -0.116912117323E+04   -0.16451E-05   -0.16675E-05  3353   0.576E-03    0.939E-03
RMM:   7    -0.116912117406E+04   -0.82751E-06   -0.96105E-06  3005   0.438E-03    0.868E-03
RMM:   8    -0.116912117457E+04   -0.51326E-06   -0.62817E-06  2618   0.357E-03
  21 F= -.11691212E+04 E0= -.11691212E+04  d E =-.506677E-02  mag=    10.0000
       N       E                     dE             d eps       ncg     rms          rms(c)
DAV:   1    -0.116912131016E+04   -0.13611E-03   -0.12846E+00  6408   0.133E+00    0.274E-01
RMM:   2    -0.116912423741E+04   -0.29272E-02   -0.32553E-02  6153   0.227E-01    0.199E-01
RMM:   3    -0.116912422219E+04    0.15219E-04   -0.15875E-03  6120   0.739E-02    0.127E-01
RMM:   4    -0.116912413822E+04    0.83965E-04   -0.45624E-04  5035   0.231E-02    0.696E-02
RMM:   5    -0.116912412081E+04    0.17416E-04   -0.11461E-04  3633   0.151E-02    0.423E-02
RMM:   6    -0.116912412508E+04   -0.42714E-05   -0.37422E-05  3491   0.963E-03    0.180E-02
RMM:   7    -0.116912412719E+04   -0.21135E-05   -0.21314E-05  3353   0.633E-03    0.119E-02
RMM:   8    -0.116912412833E+04   -0.11414E-05   -0.13080E-05  3256   0.564E-03
  22 F= -.11691241E+04 E0= -.11691241E+04  d E =-.295376E-02  mag=    10.0000
       N       E                     dE             d eps       ncg     rms          rms(c)
DAV:   1    -0.116912228834E+04    0.18388E-02   -0.13060E+00  6416   0.134E+00    0.277E-01
RMM:   2    -0.116912528003E+04   -0.29917E-02   -0.33254E-02  6165   0.230E-01    0.201E-01
RMM:   3    -0.116912526441E+04    0.15616E-04   -0.16295E-03  6142   0.740E-02    0.129E-01
RMM:   4    -0.116912518009E+04    0.84324E-04   -0.46817E-04  5111   0.232E-02    0.711E-02
RMM:   5    -0.116912516132E+04    0.18769E-04   -0.12412E-04  3671   0.156E-02    0.448E-02
RMM:   6    -0.116912516580E+04   -0.44832E-05   -0.40753E-05  3508   0.101E-02    0.196E-02
RMM:   7    -0.116912516810E+04   -0.22918E-05   -0.23141E-05  3380   0.668E-03    0.125E-02
RMM:   8    -0.116912516937E+04   -0.12760E-05   -0.14611E-05  3273   0.589E-03
  23 F= -.11691252E+04 E0= -.11691252E+04  d E =-.399480E-02  mag=    10.0000
       N       E                     dE             d eps       ncg     rms          rms(c)
DAV:   1    -0.116912385880E+04    0.13093E-02   -0.17243E+00  6432   0.155E+00    0.330E-01
RMM:   2    -0.116912777234E+04   -0.39135E-02   -0.45166E-02  6159   0.269E-01    0.243E-01
RMM:   3    -0.116912772012E+04    0.52220E-04   -0.22253E-03  6185   0.869E-02    0.154E-01
RMM:   4    -0.116912758288E+04    0.13724E-03   -0.75630E-04  6001   0.284E-02    0.792E-02
RMM:   5    -0.116912756372E+04    0.19152E-04   -0.15321E-04  3805   0.169E-02    0.263E-02
RMM:   6    -0.116912756917E+04   -0.54473E-05   -0.50542E-05  3550   0.104E-02    0.168E-02
RMM:   7    -0.116912757196E+04   -0.27877E-05   -0.30230E-05  3434   0.770E-03    0.111E-02
RMM:   8    -0.116912757393E+04   -0.19684E-05   -0.19673E-05  3333   0.622E-03
  24 F= -.11691276E+04 E0= -.11691276E+04  d E =-.240456E-02  mag=    10.0000
       N       E                     dE             d eps       ncg     rms          rms(c)
DAV:   1    -0.116912734542E+04    0.22653E-03   -0.17605E-01  6448   0.496E-01    0.105E-01
RMM:   2    -0.116912775358E+04   -0.40815E-03   -0.46965E-03  6187   0.869E-02    0.777E-02
RMM:   3    -0.116912774318E+04    0.10397E-04   -0.19637E-04  3786   0.276E-02    0.496E-02
RMM:   4    -0.116912773045E+04    0.12730E-04   -0.81221E-05  3518   0.111E-02    0.260E-02
RMM:   5    -0.116912773112E+04   -0.67004E-06   -0.27046E-05  3445   0.763E-03    0.145E-02
RMM:   6    -0.116912773248E+04   -0.13573E-05   -0.13057E-05  3256   0.478E-03    0.806E-03
RMM:   7    -0.116912773315E+04   -0.66773E-06   -0.70127E-06  2829   0.426E-03    0.516E-03
RMM:   8    -0.116912773364E+04   -0.49439E-06   -0.48596E-06  2322   0.296E-03
  25 F= -.11691277E+04 E0= -.11691277E+04  d E =-.256427E-02  mag=    10.0000
       N       E                     dE             d eps       ncg     rms          rms(c)
DAV:   1    -0.116912693009E+04    0.80306E-03   -0.97609E-01  6432   0.117E+00    0.261E-01
RMM:   2    -0.116912907702E+04   -0.21469E-02   -0.25233E-02  6161   0.202E-01    0.198E-01
RMM:   3    -0.116912904371E+04    0.33308E-04   -0.12424E-03  6058   0.661E-02    0.126E-01
RMM:   4    -0.116912896640E+04    0.77312E-04   -0.41708E-04  5009   0.221E-02    0.688E-02
RMM:   5    -0.116912894913E+04    0.17268E-04   -0.94418E-05  3645   0.142E-02    0.410E-02
RMM:   6    -0.116912895228E+04   -0.31509E-05   -0.30691E-05  3487   0.885E-03    0.157E-02
RMM:   7    -0.116912895393E+04   -0.16536E-05   -0.18008E-05  3359   0.583E-03    0.109E-02
RMM:   8    -0.116912895492E+04   -0.98131E-06   -0.10864E-05  3214   0.525E-03
  26 F= -.11691290E+04 E0= -.11691290E+04  d E =-.122128E-02  mag=    10.0000
       N       E                     dE             d eps       ncg     rms          rms(c)
DAV:   1    -0.116912891737E+04    0.36566E-04   -0.27489E-02  6576   0.197E-01    0.439E-02
RMM:   2    -0.116912898187E+04   -0.64498E-04   -0.75120E-04  5920   0.350E-02    0.340E-02
RMM:   3    -0.116912898023E+04    0.16406E-05   -0.32173E-05  3462   0.110E-02    0.217E-02
RMM:   4    -0.116912897870E+04    0.15254E-05   -0.14783E-05  3363   0.488E-03    0.120E-02
RMM:   5    -0.116912897859E+04    0.11033E-06   -0.54824E-06  2723   0.362E-03    0.955E-03
RMM:   6    -0.116912897880E+04   -0.21151E-06   -0.23122E-06  1979   0.265E-03    0.286E-03
RMM:   7    -0.116912897891E+04   -0.10662E-06   -0.11949E-06  1514   0.241E-03    0.134E-03
RMM:   8    -0.116912897896E+04   -0.49942E-07   -0.58164E-07  1185   0.214E-03
  27 F= -.11691290E+04 E0= -.11691290E+04  d E =-.124532E-02  mag=    10.0000
       N       E                     dE             d eps       ncg     rms          rms(c)
DAV:   1    -0.116912813662E+04    0.84229E-03   -0.77933E-01  6416   0.103E+00    0.228E-01
RMM:   2    -0.116912995520E+04   -0.18186E-02   -0.20243E-02  6163   0.179E-01    0.169E-01
RMM:   3    -0.116912994442E+04    0.10787E-04   -0.98148E-04  5864   0.580E-02    0.105E-01
RMM:   4    -0.116912988017E+04    0.64245E-04   -0.29558E-04  4286   0.192E-02    0.593E-02
RMM:   5    -0.116912986834E+04    0.11829E-04   -0.75958E-05  3598   0.126E-02    0.446E-02
RMM:   6    -0.116912987115E+04   -0.28026E-05   -0.26984E-05  3453   0.818E-03    0.132E-02
RMM:   7    -0.116912987253E+04   -0.13876E-05   -0.14210E-05  3281   0.543E-03    0.111E-02
RMM:   8    -0.116912987336E+04   -0.82245E-06   -0.87472E-06  3070   0.465E-03
  28 F= -.11691299E+04 E0= -.11691299E+04  d E =-.894398E-03  mag=    10.0000
       N       E                     dE             d eps       ncg     rms          rms(c)
DAV:   1    -0.116912985616E+04    0.16373E-04   -0.13758E-02  6496   0.138E-01    0.305E-02
RMM:   2    -0.116912988760E+04   -0.31436E-04   -0.34927E-04  4162   0.248E-02    0.260E-02
RMM:   3    -0.116912988995E+04   -0.23577E-05   -0.29331E-05  3351   0.978E-03    0.150E-02
RMM:   4    -0.116912988983E+04    0.12227E-06   -0.99686E-06  3102   0.435E-03    0.144E-02
RMM:   5    -0.116912988962E+04    0.21304E-06   -0.43686E-06  2419   0.338E-03    0.611E-03
RMM:   6    -0.116912988976E+04   -0.14348E-06   -0.26574E-06  1954   0.253E-03    0.195E-03
RMM:   7    -0.116912988985E+04   -0.88257E-07   -0.10170E-06  1380   0.238E-03    0.110E-03
RMM:   8    -0.116912988990E+04   -0.46522E-07   -0.42325E-07   925   0.195E-03
  29 F= -.11691299E+04 E0= -.11691299E+04  d E =-.910939E-03  mag=    10.0000
       N       E                     dE             d eps       ncg     rms          rms(c)
DAV:   1    -0.116912940924E+04    0.48061E-03   -0.51638E-01  6392   0.845E-01    0.176E-01
RMM:   2    -0.116913054770E+04   -0.11385E-02   -0.13214E-02  6160   0.146E-01    0.130E-01
RMM:   3    -0.116913053452E+04    0.13184E-04   -0.62859E-04  5360   0.478E-02    0.816E-02
RMM:   4    -0.116913049420E+04    0.40312E-04   -0.18567E-04  3740   0.160E-02    0.437E-02
RMM:   5    -0.116913048959E+04    0.46139E-05   -0.51032E-05  3497   0.101E-02    0.380E-02
RMM:   6    -0.116913049161E+04   -0.20201E-05   -0.20623E-05  3415   0.705E-03    0.132E-02
RMM:   7    -0.116913049277E+04   -0.11568E-05   -0.11451E-05  3216   0.470E-03    0.110E-02
RMM:   8    -0.116913049341E+04   -0.64571E-06   -0.67356E-06  2943   0.423E-03
  30 F= -.11691305E+04 E0= -.11691305E+04  d E =-.603515E-03  mag=    10.0000
