       N       E                     dE             d eps       ncg     rms          rms(c)
DAV:   1    -0.116375955708E+04   -0.11638E+04   -0.13170E-05  3848   0.951E-03    0.103E-02
RMM:   2    -0.116375955762E+04   -0.54017E-06   -0.95941E-06  3156   0.441E-03    0.141E-02
RMM:   3    -0.116375955785E+04   -0.22260E-06   -0.34702E-06  2589   0.318E-03    0.260E-03
RMM:   4    -0.116375955813E+04   -0.28845E-06   -0.17935E-06  1798   0.246E-03    0.321E-03
RMM:   5    -0.116375955835E+04   -0.21960E-06   -0.12290E-06  1654   0.246E-03    0.227E-03
RMM:   6    -0.116375955856E+04   -0.20443E-06   -0.53352E-07  1134   0.206E-03    0.173E-03
RMM:   7    -0.116375955867E+04   -0.10901E-06   -0.30475E-07   977   0.195E-03    0.148E-03
RMM:   8    -0.116375955876E+04   -0.89683E-07   -0.22074E-07   832   0.194E-03
   1 F= -.11637596E+04 E0= -.11637588E+04  d E =-.116376E+04  mag=     5.9833
       N       E                     dE             d eps       ncg     rms          rms(c)
DAV:   1    -0.116376063663E+04   -0.10780E-02   -0.11664E+00  6416   0.124E+00    0.305E-01
RMM:   2    -0.116376268150E+04   -0.20449E-02   -0.34131E-02  6147   0.233E-01    0.294E-01
RMM:   3    -0.116376243182E+04    0.24968E-03   -0.14589E-03  6343   0.587E-02    0.202E-01
RMM:   4    -0.116376218338E+04    0.24844E-03   -0.89896E-04  5509   0.316E-02    0.109E-01
RMM:   5    -0.116376208525E+04    0.98125E-04   -0.18642E-04  4267   0.195E-02    0.348E-02
RMM:   6    -0.116376208905E+04   -0.37953E-05   -0.46762E-05  3630   0.963E-03    0.272E-02
RMM:   7    -0.116376209001E+04   -0.96692E-06   -0.19621E-05  3514   0.710E-03    0.245E-02
RMM:   8    -0.116376209125E+04   -0.12379E-05   -0.11655E-05  3430   0.466E-03
   2 F= -.11637621E+04 E0= -.11637613E+04  d E =-.253249E-02  mag=     5.9837
       N       E                     dE             d eps       ncg     rms          rms(c)
DAV:   1    -0.116376348705E+04   -0.13970E-02   -0.24376E-01  6256   0.552E-01    0.197E-01
RMM:   2    -0.116376391074E+04   -0.42368E-03   -0.84347E-03  6123   0.114E-01    0.208E-01
RMM:   3    -0.116376381247E+04    0.98266E-04   -0.34749E-04  4741   0.314E-02    0.148E-01
RMM:   4    -0.116376373276E+04    0.79713E-04   -0.31850E-04  4890   0.194E-02    0.763E-02
RMM:   5    -0.116376370692E+04    0.25842E-04   -0.88862E-05  3928   0.121E-02    0.318E-02
RMM:   6    -0.116376370743E+04   -0.51090E-06   -0.18431E-05  3345   0.678E-03    0.187E-02
RMM:   7    -0.116376370797E+04   -0.54124E-06   -0.98990E-06  2957   0.381E-03    0.142E-02
RMM:   8    -0.116376370861E+04   -0.64420E-06   -0.44063E-06  2740   0.342E-03
   3 F= -.11637637E+04 E0= -.11637629E+04  d E =-.161736E-02  mag=     5.9838
       N       E                     dE             d eps       ncg     rms          rms(c)
DAV:   1    -0.116376441043E+04   -0.70246E-03   -0.27496E-01  6272   0.604E-01    0.111E-01
RMM:   2    -0.116376501002E+04   -0.59959E-03   -0.69874E-03  6154   0.102E-01    0.946E-02
RMM:   3    -0.116376498738E+04    0.22640E-04   -0.28536E-04  4244   0.317E-02    0.657E-02
RMM:   4    -0.116376497194E+04    0.15434E-04   -0.89042E-05  3590   0.119E-02    0.479E-02
RMM:   5    -0.116376496287E+04    0.90796E-05   -0.37969E-05  3462   0.869E-03    0.136E-02
RMM:   6    -0.116376496399E+04   -0.11260E-05   -0.13798E-05  3261   0.548E-03    0.909E-03
RMM:   7    -0.116376496464E+04   -0.64824E-06   -0.64625E-06  2806   0.396E-03    0.625E-03
RMM:   8    -0.116376496509E+04   -0.45475E-06   -0.37696E-06  2322   0.307E-03
   4 F= -.11637650E+04 E0= -.11637642E+04  d E =-.125648E-02  mag=     5.9838
       N       E                     dE             d eps       ncg     rms          rms(c)
DAV:   1    -0.116376554648E+04   -0.58184E-03   -0.13866E-01  6176   0.429E-01    0.770E-02
RMM:   2    -0.116376584088E+04   -0.29440E-03   -0.33751E-03  6173   0.709E-02    0.564E-02
RMM:   3    -0.116376583045E+04    0.10435E-04   -0.13402E-04  3618   0.232E-02    0.358E-02
RMM:   4    -0.116376582536E+04    0.50899E-05   -0.49888E-05  3455   0.858E-03    0.233E-02
RMM:   5    -0.116376582333E+04    0.20255E-05   -0.15510E-05  3312   0.555E-03    0.471E-03
RMM:   6    -0.116376582401E+04   -0.67533E-06   -0.58485E-06  2792   0.363E-03    0.375E-03
RMM:   7    -0.116376582438E+04   -0.37526E-06   -0.29555E-06  2212   0.293E-03    0.235E-03
RMM:   8    -0.116376582466E+04   -0.28028E-06   -0.16863E-06  1758   0.250E-03
   5 F= -.11637658E+04 E0= -.11637650E+04  d E =-.859568E-03  mag=     5.9838
       N       E                     dE             d eps       ncg     rms          rms(c)
DAV:   1    -0.116376621732E+04   -0.39294E-03   -0.53677E-01  6368   0.846E-01    0.142E-01
RMM:   2    -0.116376736892E+04   -0.11516E-02   -0.12831E-02  6160   0.138E-01    0.894E-02
RMM:   3    -0.116376734791E+04    0.21009E-04   -0.58556E-04  4882   0.455E-02    0.604E-02
RMM:   4    -0.116376732425E+04    0.23667E-04   -0.15184E-04  3671   0.153E-02    0.455E-02
RMM:   5    -0.116376732244E+04    0.18065E-05   -0.39038E-05  3491   0.998E-03    0.133E-02
RMM:   6    -0.116376732473E+04   -0.22867E-05   -0.21393E-05  3409   0.624E-03    0.993E-03
RMM:   7    -0.116376732590E+04   -0.11716E-05   -0.10586E-05  3158   0.543E-03    0.645E-03
RMM:   8    -0.116376732680E+04   -0.89730E-06   -0.71867E-06  2685   0.360E-03
   6 F= -.11637673E+04 E0= -.11637665E+04  d E =-.150213E-02  mag=     5.9837
       N       E                     dE             d eps       ncg     rms          rms(c)
DAV:   1    -0.116376726480E+04    0.61101E-04   -0.92776E-01  6352   0.111E+00    0.185E-01
RMM:   2    -0.116376926950E+04   -0.20047E-02   -0.22176E-02  6162   0.180E-01    0.115E-01
RMM:   3    -0.116376923551E+04    0.33989E-04   -0.10290E-03  5726   0.584E-02    0.774E-02
RMM:   4    -0.116376919756E+04    0.37952E-04   -0.26590E-04  4130   0.188E-02    0.578E-02
RMM:   5    -0.116376919032E+04    0.72471E-05   -0.58982E-05  3529   0.121E-02    0.153E-02
RMM:   6    -0.116376919386E+04   -0.35489E-05   -0.32168E-05  3472   0.766E-03    0.933E-03
RMM:   7    -0.116376919559E+04   -0.17297E-05   -0.15684E-05  3286   0.639E-03    0.632E-03
RMM:   8    -0.116376919694E+04   -0.13502E-05   -0.11041E-05  2991   0.439E-03
   7 F= -.11637692E+04 E0= -.11637684E+04  d E =-.187015E-02  mag=     5.9837
       N       E                     dE             d eps       ncg     rms          rms(c)
DAV:   1    -0.116376742750E+04    0.17681E-02   -0.19972E+00  6336   0.163E+00    0.271E-01
RMM:   2    -0.116377170853E+04   -0.42810E-02   -0.47232E-02  6178   0.263E-01    0.165E-01
RMM:   3    -0.116377164455E+04    0.63975E-04   -0.22519E-03  6080   0.872E-02    0.110E-01
RMM:   4    -0.116377156516E+04    0.79388E-04   -0.63759E-04  5835   0.278E-02    0.790E-02
RMM:   5    -0.116377155454E+04    0.10628E-04   -0.10224E-04  3614   0.144E-02    0.224E-02
RMM:   6    -0.116377156009E+04   -0.55552E-05   -0.51880E-05  3533   0.989E-03    0.119E-02
RMM:   7    -0.116377156304E+04   -0.29510E-05   -0.26900E-05  3427   0.781E-03    0.103E-02
RMM:   8    -0.116377156529E+04   -0.22499E-05   -0.18056E-05  3223   0.599E-03
   8 F= -.11637716E+04 E0= -.11637708E+04  d E =-.236835E-02  mag=     5.9837
       N       E                     dE             d eps       ncg     rms          rms(c)
DAV:   1    -0.116377080589E+04    0.75715E-03   -0.10788E+00  6328   0.119E+00    0.196E-01
RMM:   2    -0.116377314908E+04   -0.23432E-02   -0.25769E-02  6208   0.194E-01    0.121E-01
RMM:   3    -0.116377311605E+04    0.33022E-04   -0.12435E-03  5808   0.650E-02    0.814E-02
RMM:   4    -0.116377307361E+04    0.42444E-04   -0.35021E-04  4561   0.209E-02    0.502E-02
RMM:   5    -0.116377306559E+04    0.80239E-05   -0.67522E-05  3555   0.130E-02    0.153E-02
RMM:   6    -0.116377307016E+04   -0.45743E-05   -0.34671E-05  3462   0.795E-03    0.944E-03
RMM:   7    -0.116377307229E+04   -0.21270E-05   -0.17792E-05  3332   0.674E-03    0.660E-03
RMM:   8    -0.116377307406E+04   -0.17736E-05   -0.12887E-05  3072   0.467E-03
   9 F= -.11637731E+04 E0= -.11637723E+04  d E =-.150877E-02  mag=     5.9836
       N       E                     dE             d eps       ncg     rms          rms(c)
DAV:   1    -0.116377307234E+04   -0.46828E-07   -0.40480E-01  6304   0.727E-01    0.120E-01
RMM:   2    -0.116377395808E+04   -0.88575E-03   -0.96765E-03  6248   0.119E-01    0.758E-02
RMM:   3    -0.116377394004E+04    0.18042E-04   -0.42728E-04  4436   0.385E-02    0.507E-02
RMM:   4    -0.116377392351E+04    0.16534E-04   -0.11965E-04  3586   0.137E-02    0.299E-02
RMM:   5    -0.116377392336E+04    0.14692E-06   -0.31937E-05  3475   0.889E-03    0.130E-02
RMM:   6    -0.116377392559E+04   -0.22318E-05   -0.17087E-05  3333   0.560E-03    0.831E-03
RMM:   7    -0.116377392675E+04   -0.11549E-05   -0.90627E-06  2988   0.500E-03    0.609E-03
RMM:   8    -0.116377392766E+04   -0.91011E-06   -0.62298E-06  2506   0.341E-03
  10 F= -.11637739E+04 E0= -.11637731E+04  d E =-.853594E-03  mag=     5.9836
       N       E                     dE             d eps       ncg     rms          rms(c)
DAV:   1    -0.116377253962E+04    0.13871E-02   -0.12132E+00  6336   0.126E+00    0.205E-01
RMM:   2    -0.116377517380E+04   -0.26342E-02   -0.28698E-02  6171   0.205E-01    0.129E-01
RMM:   3    -0.116377514157E+04    0.32233E-04   -0.13620E-03  5862   0.678E-02    0.868E-02
RMM:   4    -0.116377509483E+04    0.46735E-04   -0.37017E-04  4664   0.214E-02    0.590E-02
RMM:   5    -0.116377508541E+04    0.94246E-05   -0.70733E-05  3556   0.131E-02    0.174E-02
RMM:   6    -0.116377509029E+04   -0.48805E-05   -0.37130E-05  3487   0.821E-03    0.973E-03
RMM:   7    -0.116377509241E+04   -0.21189E-05   -0.17712E-05  3332   0.664E-03    0.653E-03
RMM:   8    -0.116377509412E+04   -0.17091E-05   -0.12384E-05  3069   0.462E-03
  11 F= -.11637751E+04 E0= -.11637743E+04  d E =-.116646E-02  mag=     5.9835
       N       E                     dE             d eps       ncg     rms          rms(c)
DAV:   1    -0.116377527363E+04   -0.18123E-03   -0.85583E-02  6320   0.332E-01    0.556E-02
RMM:   2    -0.116377546276E+04   -0.18913E-03   -0.21007E-03  6131   0.559E-02    0.397E-02
RMM:   3    -0.116377545732E+04    0.54440E-05   -0.83457E-05  3519   0.179E-02    0.258E-02
RMM:   4    -0.116377545493E+04    0.23944E-05   -0.33023E-05  3425   0.701E-03    0.151E-02
RMM:   5    -0.116377545445E+04    0.47463E-06   -0.10442E-05  3094   0.459E-03    0.395E-03
RMM:   6    -0.116377545514E+04   -0.68691E-06   -0.44107E-06  2476   0.314E-03    0.277E-03
RMM:   7    -0.116377545554E+04   -0.40318E-06   -0.22931E-06  1950   0.271E-03    0.211E-03
RMM:   8    -0.116377545597E+04   -0.42687E-06   -0.14312E-06  1600   0.235E-03
  12 F= -.11637755E+04 E0= -.11637747E+04  d E =-.361851E-03  mag=     5.9835
       N       E                     dE             d eps       ncg     rms          rms(c)
DAV:   1    -0.116377544112E+04    0.14418E-04   -0.24768E-01  6160   0.564E-01    0.920E-02
RMM:   2    -0.116377597533E+04   -0.53421E-03   -0.58056E-03  6171   0.915E-02    0.573E-02
RMM:   3    -0.116377596605E+04    0.92768E-05   -0.25177E-04  4003   0.306E-02    0.374E-02
RMM:   4    -0.116377595644E+04    0.96101E-05   -0.74692E-05  3504   0.107E-02    0.166E-02
RMM:   5    -0.116377595727E+04   -0.82592E-06   -0.19306E-05  3348   0.655E-03    0.592E-03
RMM:   6    -0.116377595847E+04   -0.12016E-05   -0.89963E-06  3012   0.422E-03    0.442E-03
RMM:   7    -0.116377595913E+04   -0.65631E-06   -0.48246E-06  2528   0.357E-03    0.301E-03
RMM:   8    -0.116377595967E+04   -0.53833E-06   -0.30052E-06  2043   0.271E-03
  13 F= -.11637760E+04 E0= -.11637752E+04  d E =-.503697E-03  mag=     5.9834
