       N       E                     dE             d eps       ncg     rms          rms(c)
DAV:   1     0.119010782011E+05    0.11901E+05   -0.42039E+05  6168   0.131E+03
DAV:   2     0.642343136008E+03   -0.11259E+05   -0.10054E+05  6160   0.375E+02
DAV:   3    -0.136603179456E+04   -0.20084E+04   -0.19360E+04  6584   0.165E+02
DAV:   4    -0.150075435462E+04   -0.13472E+03   -0.13246E+03  8120   0.443E+01
DAV:   5    -0.150920701937E+04   -0.84527E+01   -0.84120E+01 11136   0.102E+01    0.179E+02
RMM:   6    -0.116555781091E+04    0.34365E+03   -0.15869E+03  6263   0.345E+01    0.105E+02
RMM:   7    -0.115181436595E+04    0.13743E+02   -0.60961E+01  6398   0.110E+01    0.658E+01
RMM:   8    -0.116777643947E+04   -0.15962E+02   -0.24327E+01  7002   0.553E+00    0.541E+01
RMM:   9    -0.119018137324E+04   -0.22405E+02   -0.15065E+02  7354   0.100E+01    0.725E+01
RMM:  10    -0.117126575895E+04    0.18916E+02   -0.19369E+01  6283   0.505E+00    0.342E+01
RMM:  11    -0.115704040170E+04    0.14225E+02   -0.11260E+01  6311   0.326E+00    0.256E+01
RMM:  12    -0.115729147165E+04   -0.25107E+00   -0.10736E+00  8302   0.784E-01    0.250E+01
RMM:  13    -0.115772241320E+04   -0.43094E+00   -0.24848E-01  8157   0.473E-01    0.236E+01
RMM:  14    -0.115896605208E+04   -0.12436E+01   -0.25427E+00  6422   0.164E+00    0.146E+01
RMM:  15    -0.116016725620E+04   -0.12012E+01   -0.18796E+00  6662   0.146E+00    0.924E+00
RMM:  16    -0.116103464812E+04   -0.86739E+00   -0.61198E-01  7054   0.744E-01    0.779E+00
RMM:  17    -0.116181069211E+04   -0.77604E+00   -0.76830E-01  6677   0.830E-01    0.701E+00
RMM:  18    -0.116207460853E+04   -0.26392E+00   -0.22601E-01  6755   0.477E-01    0.400E+00
RMM:  19    -0.116229439043E+04   -0.21978E+00   -0.13704E-01  6833   0.376E-01    0.209E+00
RMM:  20    -0.116234949688E+04   -0.55106E-01   -0.64965E-02  6815   0.269E-01    0.124E+00
RMM:  21    -0.116236365440E+04   -0.14158E-01   -0.16260E-02  6850   0.135E-01    0.921E-01
RMM:  22    -0.116236755282E+04   -0.38984E-02   -0.10828E-02  6562   0.106E-01    0.705E-01
RMM:  23    -0.116237133160E+04   -0.37788E-02   -0.61932E-03  6333   0.847E-02    0.369E-01
RMM:  24    -0.116237156857E+04   -0.23698E-03   -0.18865E-03  6015   0.394E-02    0.285E-01
RMM:  25    -0.116237173921E+04   -0.17063E-03   -0.13571E-03  5357   0.393E-02    0.158E-01
RMM:  26    -0.116237187858E+04   -0.13938E-03   -0.63143E-04  4969   0.251E-02    0.115E-01
RMM:  27    -0.116237208375E+04   -0.20517E-03   -0.35648E-04  4369   0.203E-02    0.659E-02
RMM:  28    -0.116237224133E+04   -0.15758E-03   -0.26645E-04  4198   0.164E-02    0.318E-02
RMM:  29    -0.116237231267E+04   -0.71339E-04   -0.10905E-04  3804   0.102E-02
   1 F= -.11623723E+04 E0= -.11623723E+04  d E =-.116237E+04  mag=    -1.9990
       N       E                     dE             d eps       ncg     rms          rms(c)
DAV:   1    -0.116252744778E+04   -0.15521E+00   -0.23078E+02  7048   0.165E+01    0.507E+00
RMM:   2    -0.116308960356E+04   -0.56216E+00   -0.86855E+00  6203   0.374E+00    0.477E+00
RMM:   3    -0.116304836793E+04    0.41236E-01   -0.55560E-01  6681   0.127E+00    0.315E+00
RMM:   4    -0.116298627318E+04    0.62095E-01   -0.20387E-01  6670   0.497E-01    0.169E+00
RMM:   5    -0.116297248982E+04    0.13783E-01   -0.75529E-02  6481   0.330E-01    0.602E-01
RMM:   6    -0.116297225648E+04    0.23334E-03   -0.98413E-03  8181   0.947E-02    0.419E-01
RMM:   7    -0.116297202889E+04    0.22759E-03   -0.37326E-03  7719   0.509E-02    0.235E-01
RMM:   8    -0.116297214951E+04   -0.12062E-03   -0.12932E-03  6346   0.379E-02    0.774E-02
RMM:   9    -0.116297210682E+04    0.42691E-04   -0.24608E-04  4666   0.177E-02
   2 F= -.11629721E+04 E0= -.11629688E+04  d E =-.599794E+00  mag=    -2.0214
       N       E                     dE             d eps       ncg     rms          rms(c)
DAV:   1    -0.116299639885E+04   -0.24249E-01   -0.87496E+00  6896   0.335E+00    0.106E+00
RMM:   2    -0.116301620727E+04   -0.19808E-01   -0.30319E-01  6207   0.711E-01    0.102E+00
RMM:   3    -0.116301422797E+04    0.19793E-02   -0.17355E-02  6338   0.237E-01    0.687E-01
RMM:   4    -0.116301198733E+04    0.22406E-02   -0.81833E-03  6427   0.101E-01    0.355E-01
RMM:   5    -0.116301151046E+04    0.47687E-03   -0.25322E-03  5965   0.607E-02    0.114E-01
RMM:   6    -0.116301147574E+04    0.34712E-04   -0.19803E-04  4309   0.186E-02    0.767E-02
RMM:   7    -0.116301147210E+04    0.36436E-05   -0.11415E-04  3967   0.127E-02    0.411E-02
RMM:   8    -0.116301147812E+04   -0.60178E-05   -0.48415E-05  3708   0.992E-03
   3 F= -.11630115E+04 E0= -.11630113E+04  d E =-.639165E+00  mag=    -2.0024
       N       E                     dE             d eps       ncg     rms          rms(c)
DAV:   1    -0.116312150066E+04   -0.11003E+00   -0.47010E+01  6400   0.787E+00    0.187E+00
RMM:   2    -0.116320550776E+04   -0.84007E-01   -0.12714E+00  6252   0.146E+00    0.154E+00
RMM:   3    -0.116320026126E+04    0.52465E-02   -0.73940E-02  6489   0.501E-01    0.101E+00
RMM:   4    -0.116319361931E+04    0.66419E-02   -0.28383E-02  7162   0.178E-01    0.618E-01
RMM:   5    -0.116319066175E+04    0.29576E-02   -0.86862E-03  6817   0.100E-01    0.189E-01
RMM:   6    -0.116319070058E+04   -0.38833E-04   -0.12485E-03  7274   0.370E-02    0.132E-01
RMM:   7    -0.116319068998E+04    0.10601E-04   -0.57363E-04  6077   0.206E-02    0.784E-02
RMM:   8    -0.116319069654E+04   -0.65644E-05   -0.17157E-04  4313   0.165E-02
   4 F= -.11631907E+04 E0= -.11631874E+04  d E =-.179218E+00  mag=    -2.0185
       N       E                     dE             d eps       ncg     rms          rms(c)
DAV:   1    -0.116319531569E+04   -0.46257E-02   -0.58314E+00  6648   0.277E+00    0.692E-01
RMM:   2    -0.116320528032E+04   -0.99646E-02   -0.16072E-01  6257   0.513E-01    0.589E-01
RMM:   3    -0.116320471609E+04    0.56424E-03   -0.98129E-03  6401   0.178E-01    0.373E-01
RMM:   4    -0.116320390616E+04    0.80993E-03   -0.34580E-03  7106   0.618E-02    0.231E-01
RMM:   5    -0.116320353614E+04    0.37002E-03   -0.13764E-03  6089   0.376E-02    0.756E-02
RMM:   6    -0.116320352856E+04    0.75850E-05   -0.13532E-04  4169   0.156E-02    0.505E-02
RMM:   7    -0.116320352952E+04   -0.96364E-06   -0.69050E-05  3982   0.117E-02    0.328E-02
RMM:   8    -0.116320353469E+04   -0.51646E-05   -0.38829E-05  3758   0.894E-03
   5 F= -.11632035E+04 E0= -.11631984E+04  d E =-.192057E+00  mag=    -2.0268
       N       E                     dE             d eps       ncg     rms          rms(c)
DAV:   1    -0.116318790508E+04    0.15624E-01   -0.44744E+01  6344   0.781E+00    0.192E+00
RMM:   2    -0.116328598057E+04   -0.98075E-01   -0.12814E+00  6271   0.146E+00    0.187E+00
RMM:   3    -0.116328057209E+04    0.54085E-02   -0.68772E-02  6532   0.492E-01    0.127E+00
RMM:   4    -0.116327776144E+04    0.28106E-02   -0.27793E-02  7292   0.176E-01    0.772E-01
RMM:   5    -0.116327432131E+04    0.34401E-02   -0.91385E-03  6882   0.961E-02    0.218E-01
RMM:   6    -0.116327440858E+04   -0.87275E-04   -0.19163E-03  7348   0.433E-02    0.116E-01
RMM:   7    -0.116327435352E+04    0.55060E-04   -0.46131E-04  5510   0.192E-02    0.727E-02
RMM:   8    -0.116327436781E+04   -0.14283E-04   -0.21989E-04  4542   0.165E-02
   6 F= -.11632744E+04 E0= -.11632623E+04  d E =-.708331E-01  mag=    -2.0426
       N       E                     dE             d eps       ncg     rms          rms(c)
DAV:   1    -0.116327437682E+04   -0.23292E-04   -0.10786E-02  6672   0.122E-01    0.366E-02
RMM:   2    -0.116327440067E+04   -0.23854E-04   -0.30308E-04  4378   0.241E-02    0.336E-02
RMM:   3    -0.116327440320E+04   -0.25257E-05   -0.31346E-05  3517   0.107E-02    0.177E-02
RMM:   4    -0.116327440615E+04   -0.29481E-05   -0.14007E-05  3425   0.535E-03    0.144E-02
RMM:   5    -0.116327440769E+04   -0.15448E-05   -0.70473E-06  3098   0.438E-03    0.678E-03
RMM:   6    -0.116327440909E+04   -0.13986E-05   -0.41338E-06  2428   0.295E-03    0.404E-03
RMM:   7    -0.116327440989E+04   -0.79795E-06   -0.22934E-06  2085   0.297E-03    0.337E-03
RMM:   8    -0.116327441072E+04   -0.83417E-06   -0.15418E-06  1670   0.235E-03
   7 F= -.11632744E+04 E0= -.11632623E+04  d E =-.708760E-01  mag=    -2.0374
       N       E                     dE             d eps       ncg     rms          rms(c)
DAV:   1    -0.116326578889E+04    0.86210E-02   -0.41991E+01  6296   0.761E+00    0.189E+00
RMM:   2    -0.116336772490E+04   -0.10194E+00   -0.11295E+00  6287   0.135E+00    0.129E+00
RMM:   3    -0.116336708310E+04    0.64180E-03   -0.67065E-02  6433   0.484E-01    0.829E-01
RMM:   4    -0.116336629229E+04    0.79082E-03   -0.22812E-02  7607   0.160E-01    0.497E-01
RMM:   5    -0.116336607838E+04    0.21391E-03   -0.65938E-03  7541   0.787E-02    0.209E-01
RMM:   6    -0.116336627028E+04   -0.19190E-03   -0.16796E-03  7679   0.405E-02    0.929E-02
RMM:   7    -0.116336634055E+04   -0.70270E-04   -0.63830E-04  6149   0.224E-02    0.776E-02
RMM:   8    -0.116336638210E+04   -0.41547E-04   -0.28683E-04  4950   0.173E-02
   8 F= -.11633664E+04 E0= -.11633562E+04  d E =-.919714E-01  mag=    -2.0244
       N       E                     dE             d eps       ncg     rms          rms(c)
DAV:   1    -0.116242001587E+04    0.94632E+00   -0.37511E+02  6208   0.228E+01    0.499E+00
RMM:   2    -0.116329627948E+04   -0.87626E+00   -0.10488E+01  6317   0.409E+00    0.377E+00
RMM:   3    -0.116328982380E+04    0.64557E-02   -0.55602E-01  6529   0.142E+00    0.237E+00
RMM:   4    -0.116327679318E+04    0.13031E-01   -0.18540E-01  7716   0.474E-01    0.144E+00
RMM:   5    -0.116326522439E+04    0.11569E-01   -0.45220E-02  7669   0.208E-01    0.534E-01
RMM:   6    -0.116326590088E+04   -0.67649E-03   -0.82946E-03  8654   0.100E-01    0.293E-01
RMM:   7    -0.116326617680E+04   -0.27592E-03   -0.36130E-03  9242   0.496E-02    0.185E-01
RMM:   8    -0.116326642137E+04   -0.24457E-03   -0.17955E-03  8263   0.388E-02    0.941E-02
RMM:   9    -0.116326653860E+04   -0.11723E-03   -0.91616E-04  6398   0.242E-02    0.375E-02
RMM:  10    -0.116326660792E+04   -0.69320E-04   -0.50099E-04  5597   0.199E-02
   9 F= -.11632666E+04 E0= -.11632605E+04  d E =0.780280E-02  mag=    -2.0369
       N       E                     dE             d eps       ncg     rms          rms(c)
DAV:   1    -0.116309649567E+04    0.17004E+00   -0.15938E+02  6304   0.147E+01    0.314E+00
RMM:   2    -0.116344032836E+04   -0.34383E+00   -0.41967E+00  6344   0.262E+00    0.245E+00
RMM:   3    -0.116343519861E+04    0.51298E-02   -0.22747E-01  6563   0.897E-01    0.161E+00
RMM:   4    -0.116343042781E+04    0.47708E-02   -0.79451E-02  7578   0.299E-01    0.112E+00
RMM:   5    -0.116342369661E+04    0.67312E-02   -0.17710E-02  7400   0.134E-01    0.279E-01
RMM:   6    -0.116342382457E+04   -0.12796E-03   -0.37014E-03  8450   0.630E-02    0.154E-01
RMM:   7    -0.116342393251E+04   -0.10794E-03   -0.13021E-03  7795   0.293E-02    0.937E-02
RMM:   8    -0.116342400063E+04   -0.68119E-04   -0.57320E-04  5638   0.223E-02
  10 F= -.11634240E+04 E0= -.11634200E+04  d E =-.149590E+00  mag=    -2.0261
       N       E                     dE             d eps       ncg     rms          rms(c)
DAV:   1    -0.116333137778E+04    0.92555E-01   -0.57877E+01  6304   0.894E+00    0.216E+00
RMM:   2    -0.116345936531E+04   -0.12799E+00   -0.16459E+00  6234   0.165E+00    0.226E+00
RMM:   3    -0.116345378862E+04    0.55767E-02   -0.85454E-02  6509   0.557E-01    0.159E+00
RMM:   4    -0.116345126136E+04    0.25273E-02   -0.32360E-02  7265   0.195E-01    0.946E-01
RMM:   5    -0.116344635698E+04    0.49044E-02   -0.10269E-02  6894   0.104E-01    0.169E-01
RMM:   6    -0.116344631701E+04    0.39967E-04   -0.14643E-03  7169   0.419E-02    0.108E-01
RMM:   7    -0.116344628538E+04    0.31636E-04   -0.56037E-04  5986   0.201E-02    0.597E-02
RMM:   8    -0.116344629051E+04   -0.51358E-05   -0.20408E-04  4451   0.166E-02
  11 F= -.11634463E+04 E0= -.11634427E+04  d E =-.222899E-01  mag=    -2.0247
       N       E                     dE             d eps       ncg     rms          rms(c)
DAV:   1    -0.116344410812E+04    0.21773E-02   -0.86024E+00  6432   0.344E+00    0.839E-01
RMM:   2    -0.116346277801E+04   -0.18670E-01   -0.24168E-01  6245   0.635E-01    0.878E-01
RMM:   3    -0.116346200350E+04    0.77451E-03   -0.12533E-02  6452   0.210E-01    0.618E-01
RMM:   4    -0.116346176191E+04    0.24158E-03   -0.48030E-03  6954   0.746E-02    0.384E-01
RMM:   5    -0.116346092236E+04    0.83955E-03   -0.15860E-03  6289   0.412E-02    0.608E-02
RMM:   6    -0.116346090614E+04    0.16216E-04   -0.15817E-04  4260   0.169E-02    0.414E-02
RMM:   7    -0.116346090412E+04    0.20217E-05   -0.64827E-05  3713   0.112E-02    0.246E-02
RMM:   8    -0.116346090697E+04   -0.28495E-05   -0.38727E-05  3545   0.890E-03
  12 F= -.11634609E+04 E0= -.11634572E+04  d E =-.369063E-01  mag=    -2.0257
       N       E                     dE             d eps       ncg     rms          rms(c)
DAV:   1    -0.116345196100E+04    0.89431E-02   -0.17048E+01  6296   0.478E+00    0.136E+00
RMM:   2    -0.116349427707E+04   -0.42316E-01   -0.46668E-01  6204   0.883E-01    0.111E+00
RMM:   3    -0.116349422879E+04    0.48283E-04   -0.25254E-02  6490   0.303E-01    0.696E-01
RMM:   4    -0.116349273733E+04    0.14915E-02   -0.95981E-03  7244   0.109E-01    0.379E-01
RMM:   5    -0.116349224659E+04    0.49074E-03   -0.25658E-03  6794   0.512E-02    0.124E-01
RMM:   6    -0.116349220371E+04    0.42883E-04   -0.28940E-04  4719   0.205E-02    0.533E-02
RMM:   7    -0.116349220760E+04   -0.38850E-05   -0.13737E-04  4068   0.141E-02    0.348E-02
RMM:   8    -0.116349221526E+04   -0.76682E-05   -0.77441E-05  3774   0.123E-02
  13 F= -.11634922E+04 E0= -.11634890E+04  d E =-.313083E-01  mag=    -2.0266
       N       E                     dE             d eps       ncg     rms          rms(c)
DAV:   1    -0.116349221227E+04   -0.46771E-05   -0.17973E-02  6904   0.156E-01    0.423E-02
RMM:   2    -0.116349226288E+04   -0.50604E-04   -0.54911E-04  5390   0.298E-02    0.375E-02
RMM:   3    -0.116349226292E+04   -0.49316E-07   -0.36413E-05  3496   0.111E-02    0.239E-02
RMM:   4    -0.116349226365E+04   -0.72364E-06   -0.21024E-05  3390   0.589E-03    0.146E-02
RMM:   5    -0.116349226431E+04   -0.66217E-06   -0.10109E-05  3189   0.474E-03    0.648E-03
RMM:   6    -0.116349226504E+04   -0.73320E-06   -0.58531E-06  2774   0.346E-03    0.411E-03
RMM:   7    -0.116349226554E+04   -0.49153E-06   -0.35077E-06  2235   0.318E-03    0.277E-03
RMM:   8    -0.116349226605E+04   -0.51569E-06   -0.21196E-06  1757   0.264E-03
  14 F= -.11634923E+04 E0= -.11634891E+04  d E =-.313591E-01  mag=    -2.0269
       N       E                     dE             d eps       ncg     rms          rms(c)
DAV:   1    -0.116348322249E+04    0.90430E-02   -0.12728E+01  6352   0.416E+00    0.104E+00
RMM:   2    -0.116351331661E+04   -0.30094E-01   -0.33427E-01  6234   0.732E-01    0.847E-01
RMM:   3    -0.116351318618E+04    0.13043E-03   -0.16890E-02  6392   0.253E-01    0.527E-01
RMM:   4    -0.116351235346E+04    0.83272E-03   -0.62410E-03  7422   0.858E-02    0.288E-01
RMM:   5    -0.116351201897E+04    0.33449E-03   -0.17207E-03  6950   0.399E-02    0.719E-02
RMM:   6    -0.116351201025E+04    0.87235E-05   -0.19905E-04  4439   0.173E-02    0.324E-02
RMM:   7    -0.116351201825E+04   -0.80015E-05   -0.10771E-04  3880   0.126E-02    0.249E-02
RMM:   8    -0.116351202376E+04   -0.55111E-05   -0.63135E-05  3657   0.105E-02
  15 F= -.11635120E+04 E0= -.11635089E+04  d E =-.197577E-01  mag=    -2.0276
       N       E                     dE             d eps       ncg     rms          rms(c)
DAV:   1    -0.116351176716E+04    0.25109E-03   -0.28455E-01  6616   0.623E-01    0.154E-01
RMM:   2    -0.116351247003E+04   -0.70287E-03   -0.77664E-03  6276   0.110E-01    0.127E-01
RMM:   3    -0.116351245482E+04    0.15212E-04   -0.35543E-04  4705   0.362E-02    0.803E-02
RMM:   4    -0.116351243549E+04    0.19326E-04   -0.13238E-04  3669   0.142E-02    0.403E-02
RMM:   5    -0.116351243315E+04    0.23430E-05   -0.45347E-05  3561   0.990E-03    0.151E-02
RMM:   6    -0.116351243509E+04   -0.19394E-05   -0.18159E-05  3447   0.655E-03    0.881E-03
RMM:   7    -0.116351243650E+04   -0.14049E-05   -0.11579E-05  3290   0.508E-03    0.665E-03
RMM:   8    -0.116351243762E+04   -0.11277E-05   -0.80213E-06  3077   0.430E-03
  16 F= -.11635124E+04 E0= -.11635093E+04  d E =-.201716E-01  mag=    -2.0278
       N       E                     dE             d eps       ncg     rms          rms(c)
DAV:   1    -0.116350607096E+04    0.63655E-02   -0.10562E+01  6304   0.378E+00    0.757E-01
RMM:   2    -0.116352855968E+04   -0.22489E-01   -0.26570E-01  6199   0.640E-01    0.586E-01
RMM:   3    -0.116352798734E+04    0.57234E-03   -0.13243E-02  6215   0.225E-01    0.377E-01
RMM:   4    -0.116352742854E+04    0.55880E-03   -0.46308E-03  7749   0.746E-02    0.264E-01
RMM:   5    -0.116352712052E+04    0.30802E-03   -0.11082E-03  6973   0.311E-02    0.749E-02
RMM:   6    -0.116352712519E+04   -0.46690E-05   -0.25202E-04  4780   0.184E-02    0.375E-02
RMM:   7    -0.116352713389E+04   -0.86921E-05   -0.10146E-04  3762   0.136E-02    0.326E-02
RMM:   8    -0.116352713917E+04   -0.52835E-05   -0.65358E-05  3629   0.105E-02
  17 F= -.11635271E+04 E0= -.11635241E+04  d E =-.147015E-01  mag=    -2.0271
       N       E                     dE             d eps       ncg     rms          rms(c)
DAV:   1    -0.116352584072E+04    0.12932E-02   -0.11909E+00  6448   0.127E+00    0.253E-01
RMM:   2    -0.116352844233E+04   -0.26016E-02   -0.30628E-02  6302   0.216E-01    0.197E-01
RMM:   3    -0.116352835262E+04    0.89701E-04   -0.14891E-03  6224   0.706E-02    0.127E-01
RMM:   4    -0.116352828360E+04    0.69020E-04   -0.50918E-04  5662   0.251E-02    0.765E-02
RMM:   5    -0.116352824837E+04    0.35238E-04   -0.12359E-04  4003   0.161E-02    0.197E-02
RMM:   6    -0.116352825365E+04   -0.52879E-05   -0.46158E-05  3549   0.104E-02    0.151E-02
RMM:   7    -0.116352825623E+04   -0.25732E-05   -0.26193E-05  3464   0.803E-03    0.133E-02
RMM:   8    -0.116352825796E+04   -0.17301E-05   -0.17689E-05  3353   0.617E-03
  18 F= -.11635283E+04 E0= -.11635252E+04  d E =-.158203E-01  mag=    -2.0267
       N       E                     dE             d eps       ncg     rms          rms(c)
DAV:   1    -0.116352157822E+04    0.66780E-02   -0.78152E+00  6400   0.322E+00    0.598E-01
RMM:   2    -0.116353814922E+04   -0.16571E-01   -0.19259E-01  6171   0.540E-01    0.465E-01
RMM:   3    -0.116353770052E+04    0.44870E-03   -0.94751E-03  6160   0.187E-01    0.304E-01
RMM:   4    -0.116353731740E+04    0.38311E-03   -0.32161E-03  7564   0.603E-02    0.219E-01
RMM:   5    -0.116353709688E+04    0.22053E-03   -0.82418E-04  6321   0.270E-02    0.582E-02
RMM:   6    -0.116353709777E+04   -0.89071E-06   -0.16848E-04  4267   0.162E-02    0.331E-02
RMM:   7    -0.116353710289E+04   -0.51238E-05   -0.74898E-05  3688   0.120E-02    0.308E-02
RMM:   8    -0.116353710668E+04   -0.37826E-05   -0.49622E-05  3593   0.959E-03
  19 F= -.11635371E+04 E0= -.11635344E+04  d E =-.884872E-02  mag=    -2.0260
       N       E                     dE             d eps       ncg     rms          rms(c)
DAV:   1    -0.116353666488E+04    0.43801E-03   -0.39414E-01  6640   0.723E-01    0.134E-01
RMM:   2    -0.116353754153E+04   -0.87666E-03   -0.10130E-02  6337   0.123E-01    0.106E-01
RMM:   3    -0.116353750221E+04    0.39326E-04   -0.44963E-04  4897   0.380E-02    0.697E-02
RMM:   4    -0.116353747848E+04    0.23732E-04   -0.14795E-04  3719   0.147E-02    0.419E-02
RMM:   5    -0.116353747094E+04    0.75337E-05   -0.52158E-05  3558   0.103E-02    0.108E-02
RMM:   6    -0.116353747302E+04   -0.20788E-05   -0.19942E-05  3447   0.659E-03    0.910E-03
RMM:   7    -0.116353747420E+04   -0.11800E-05   -0.12454E-05  3290   0.511E-03    0.684E-03
RMM:   8    -0.116353747500E+04   -0.80120E-06   -0.83493E-06  3028   0.416E-03
  20 F= -.11635375E+04 E0= -.11635348E+04  d E =-.921705E-02  mag=    -2.0257
       N       E                     dE             d eps       ncg     rms          rms(c)
DAV:   1    -0.116352843109E+04    0.90431E-02   -0.74561E+00  6344   0.314E+00    0.573E-01
RMM:   2    -0.116354448702E+04   -0.16056E-01   -0.18157E-01  6160   0.522E-01    0.410E-01
RMM:   3    -0.116354419092E+04    0.29610E-03   -0.87562E-03  6121   0.181E-01    0.268E-01
RMM:   4    -0.116354383097E+04    0.35995E-03   -0.31149E-03  7245   0.599E-02    0.174E-01
RMM:   5    -0.116354371020E+04    0.12077E-03   -0.59709E-04  5958   0.246E-02    0.515E-02
RMM:   6    -0.116354371659E+04   -0.63857E-05   -0.13782E-04  3933   0.149E-02    0.309E-02
RMM:   7    -0.116354372244E+04   -0.58526E-05   -0.71557E-05  3679   0.118E-02    0.308E-02
RMM:   8    -0.116354372647E+04   -0.40256E-05   -0.49494E-05  3578   0.923E-03
  21 F= -.11635437E+04 E0= -.11635409E+04  d E =-.625146E-02  mag=    -2.0264
       N       E                     dE             d eps       ncg     rms          rms(c)
DAV:   1    -0.116354356873E+04    0.15372E-03   -0.11894E-01  6704   0.397E-01    0.719E-02
RMM:   2    -0.116354384724E+04   -0.27851E-03   -0.31265E-03  6301   0.682E-02    0.529E-02
RMM:   3    -0.116354383361E+04    0.13624E-04   -0.12308E-04  3615   0.211E-02    0.350E-02
RMM:   4    -0.116354382890E+04    0.47184E-05   -0.56428E-05  3549   0.898E-03    0.203E-02
RMM:   5    -0.116354382848E+04    0.41421E-06   -0.17464E-05  3443   0.614E-03    0.926E-03
RMM:   6    -0.116354382948E+04   -0.99919E-06   -0.96445E-06  3193   0.412E-03    0.725E-03
RMM:   7    -0.116354382999E+04   -0.51354E-06   -0.53108E-06  2635   0.384E-03    0.483E-03
RMM:   8    -0.116354383043E+04   -0.43210E-06   -0.37257E-06  2150   0.278E-03
  22 F= -.11635438E+04 E0= -.11635410E+04  d E =-.635542E-02  mag=    -2.0266
       N       E                     dE             d eps       ncg     rms          rms(c)
DAV:   1    -0.116353800468E+04    0.58253E-02   -0.47329E+00  6336   0.250E+00    0.467E-01
RMM:   2    -0.116354817901E+04   -0.10174E-01   -0.11807E-01  6166   0.426E-01    0.390E-01
RMM:   3    -0.116354796907E+04    0.20993E-03   -0.58680E-03  6131   0.151E-01    0.255E-01
RMM:   4    -0.116354774186E+04    0.22721E-03   -0.18954E-03  6956   0.479E-02    0.174E-01
RMM:   5    -0.116354759714E+04    0.14472E-03   -0.51678E-04  5711   0.231E-02    0.433E-02
RMM:   6    -0.116354759913E+04   -0.19923E-05   -0.89636E-05  3684   0.133E-02    0.240E-02
RMM:   7    -0.116354760338E+04   -0.42449E-05   -0.49367E-05  3602   0.960E-03    0.175E-02
RMM:   8    -0.116354760639E+04   -0.30115E-05   -0.30922E-05  3525   0.774E-03
  23 F= -.11635476E+04 E0= -.11635447E+04  d E =-.377596E-02  mag=    -2.0267
       N       E                     dE             d eps       ncg     rms          rms(c)
DAV:   1    -0.116354760643E+04   -0.30568E-05   -0.18441E-03  6416   0.501E-02    0.107E-02
RMM:   2    -0.116354761089E+04   -0.44539E-05   -0.49751E-05  3373   0.102E-02    0.956E-03
RMM:   3    -0.116354761204E+04   -0.11579E-05   -0.94005E-06  3014   0.553E-03    0.614E-03
RMM:   4    -0.116354761255E+04   -0.50596E-06   -0.46435E-06  2176   0.302E-03    0.442E-03
RMM:   5    -0.116354761289E+04   -0.33675E-06   -0.26211E-06  1990   0.310E-03    0.275E-03
RMM:   6    -0.116354761319E+04   -0.30444E-06   -0.16371E-06  1343   0.205E-03    0.125E-03
RMM:   7    -0.116354761334E+04   -0.15022E-06   -0.83444E-07  1096   0.211E-03    0.116E-03
RMM:   8    -0.116354761346E+04   -0.11348E-06   -0.52963E-07   888   0.191E-03
  24 F= -.11635476E+04 E0= -.11635447E+04  d E =-.378303E-02  mag=    -2.0266
       N       E                     dE             d eps       ncg     rms          rms(c)
DAV:   1    -0.116354640623E+04    0.12071E-02   -0.15780E+00  6312   0.146E+00    0.284E-01
RMM:   2    -0.116354983423E+04   -0.34280E-02   -0.39455E-02  6242   0.249E-01    0.217E-01
RMM:   3    -0.116354977233E+04    0.61897E-04   -0.19786E-03  6091   0.878E-02    0.142E-01
RMM:   4    -0.116354968566E+04    0.86675E-04   -0.58051E-04  5811   0.285E-02    0.884E-02
RMM:   5    -0.116354964516E+04    0.40492E-04   -0.14392E-04  4070   0.172E-02    0.240E-02
RMM:   6    -0.116354965097E+04   -0.58106E-05   -0.46906E-05  3540   0.105E-02    0.134E-02
RMM:   7    -0.116354965336E+04   -0.23907E-05   -0.25096E-05  3463   0.773E-03    0.120E-02
RMM:   8    -0.116354965491E+04   -0.15495E-05   -0.15315E-05  3208   0.585E-03
  25 F= -.11635497E+04 E0= -.11635467E+04  d E =-.204146E-02  mag=    -2.0267
       N       E                     dE             d eps       ncg     rms          rms(c)
DAV:   1    -0.116354952134E+04    0.13203E-03   -0.10952E-01  6256   0.385E-01    0.749E-02
RMM:   2    -0.116354977152E+04   -0.25018E-03   -0.28633E-03  6322   0.672E-02    0.584E-02
RMM:   3    -0.116354976246E+04    0.90626E-05   -0.11693E-04  3620   0.221E-02    0.386E-02
RMM:   4    -0.116354975788E+04    0.45785E-05   -0.46455E-05  3502   0.851E-03    0.218E-02
RMM:   5    -0.116354975674E+04    0.11377E-05   -0.15891E-05  3384   0.572E-03    0.108E-02
RMM:   6    -0.116354975749E+04   -0.75053E-06   -0.66927E-06  3160   0.403E-03    0.556E-03
RMM:   7    -0.116354975798E+04   -0.48113E-06   -0.36935E-06  2533   0.308E-03    0.418E-03
RMM:   8    -0.116354975831E+04   -0.33702E-06   -0.22034E-06  1996   0.267E-03
  26 F= -.11635498E+04 E0= -.11635468E+04  d E =-.214486E-02  mag=    -2.0267
       N       E                     dE             d eps       ncg     rms          rms(c)
DAV:   1    -0.116354841696E+04    0.13410E-02   -0.14201E+00  6352   0.139E+00    0.282E-01
RMM:   2    -0.116355151173E+04   -0.30948E-02   -0.35411E-02  6258   0.235E-01    0.209E-01
RMM:   3    -0.116355145718E+04    0.54546E-04   -0.18034E-03  6111   0.830E-02    0.132E-01
RMM:   4    -0.116355136489E+04    0.92299E-04   -0.53034E-04  5652   0.269E-02    0.769E-02
RMM:   5    -0.116355133879E+04    0.26096E-04   -0.13590E-04  3868   0.171E-02    0.189E-02
RMM:   6    -0.116355134439E+04   -0.56008E-05   -0.42554E-05  3530   0.101E-02    0.114E-02
RMM:   7    -0.116355134694E+04   -0.25495E-05   -0.24232E-05  3422   0.729E-03    0.926E-03
RMM:   8    -0.116355134872E+04   -0.17767E-05   -0.15020E-05  3257   0.584E-03
  27 F= -.11635513E+04 E0= -.11635484E+04  d E =-.159040E-02  mag=    -2.0269
       N       E                     dE             d eps       ncg     rms          rms(c)
DAV:   1    -0.116355132172E+04    0.25220E-04   -0.23370E-02  6544   0.179E-01    0.360E-02
RMM:   2    -0.116355137599E+04   -0.54271E-04   -0.61162E-04  5604   0.317E-02    0.273E-02
RMM:   3    -0.116355137589E+04    0.99739E-07   -0.33269E-05  3441   0.118E-02    0.173E-02
RMM:   4    -0.116355137593E+04   -0.42113E-07   -0.15168E-05  3289   0.498E-03    0.108E-02
RMM:   5    -0.116355137627E+04   -0.33177E-06   -0.53132E-06  2584   0.359E-03    0.337E-03
RMM:   6    -0.116355137682E+04   -0.55799E-06   -0.27489E-06  1917   0.274E-03    0.229E-03
RMM:   7    -0.116355137716E+04   -0.33948E-06   -0.15431E-06  1533   0.253E-03    0.177E-03
RMM:   8    -0.116355137762E+04   -0.45338E-06   -0.10709E-06  1307   0.229E-03
  28 F= -.11635514E+04 E0= -.11635484E+04  d E =-.161930E-02  mag=    -2.0269
       N       E                     dE             d eps       ncg     rms          rms(c)
DAV:   1    -0.116355098913E+04    0.38803E-03   -0.56577E-01  6296   0.874E-01    0.177E-01
RMM:   2    -0.116355224265E+04   -0.12535E-02   -0.14342E-02  6186   0.150E-01    0.141E-01
RMM:   3    -0.116355221373E+04    0.28923E-04   -0.69224E-04  5504   0.519E-02    0.897E-02
RMM:   4    -0.116355217023E+04    0.43498E-04   -0.20959E-04  3989   0.178E-02    0.532E-02
RMM:   5    -0.116355215868E+04    0.11553E-04   -0.65550E-05  3571   0.123E-02    0.165E-02
RMM:   6    -0.116355216161E+04   -0.29355E-05   -0.22067E-05  3458   0.734E-03    0.115E-02
RMM:   7    -0.116355216308E+04   -0.14686E-05   -0.12070E-05  3268   0.522E-03    0.829E-03
RMM:   8    -0.116355216433E+04   -0.12435E-05   -0.75660E-06  3057   0.433E-03
  29 F= -.11635522E+04 E0= -.11635492E+04  d E =-.786709E-03  mag=    -2.0269
