       N       E                     dE             d eps       ncg     rms          rms(c)
DAV:   1    -0.116233803499E+04   -0.11623E+04   -0.91420E-04 15048   0.755E-02    0.120E-01
RMM:   2    -0.116233896545E+04   -0.93047E-03   -0.11186E-03  9891   0.372E-02    0.131E-01
RMM:   3    -0.116233936911E+04   -0.40365E-03   -0.19273E-04  7339   0.164E-02    0.115E-01
RMM:   4    -0.116233958677E+04   -0.21766E-03   -0.10643E-04  6266   0.838E-03    0.117E-01
RMM:   5    -0.116233876646E+04    0.82031E-03   -0.18296E-04  6874   0.193E-02    0.114E-01
RMM:   6    -0.116233626723E+04    0.24992E-02   -0.22476E-03  9683   0.577E-02    0.116E-01
RMM:   7    -0.116233652111E+04   -0.25387E-03   -0.12443E-04  6781   0.113E-02    0.112E-01
RMM:   8    -0.116233695622E+04   -0.43511E-03   -0.79271E-05  6298   0.139E-02    0.105E-01
RMM:   9    -0.116233906728E+04   -0.21111E-02   -0.18663E-03  9888   0.553E-02    0.993E-02
RMM:  10    -0.116234108434E+04   -0.20171E-02   -0.19886E-03  9806   0.542E-02    0.120E-01
RMM:  11    -0.116234173186E+04   -0.64752E-03   -0.51825E-04  8199   0.225E-02    0.128E-01
RMM:  12    -0.116234077387E+04    0.95799E-03   -0.20233E-04  7482   0.215E-02    0.134E-01
RMM:  13    -0.116234036008E+04    0.41380E-03   -0.92584E-05  6082   0.111E-02    0.134E-01
RMM:  14    -0.116234053681E+04   -0.17673E-03   -0.12203E-05  5406   0.544E-03    0.135E-01
RMM:  15    -0.116234037621E+04    0.16059E-03   -0.11294E-05  4716   0.476E-03    0.137E-01
RMM:  16    -0.116233995963E+04    0.41658E-03   -0.64883E-05  6082   0.973E-03    0.140E-01
RMM:  17    -0.116233985336E+04    0.10627E-03   -0.22010E-05  4278   0.410E-03    0.139E-01
RMM:  18    -0.116233985318E+04    0.17580E-06   -0.22072E-06  3274   0.252E-03
   1 F= -.11623399E+04 E0= -.11623385E+04  d E =-.116234E+04  mag=     5.9772
       N       E                     dE             d eps       ncg     rms          rms(c)
DAV:   1    -0.116231842237E+04    0.21431E-01   -0.29838E+00 12488   0.145E+00    0.129E+00
RMM:   2    -0.116234324482E+04   -0.24822E-01   -0.64757E-02 12484   0.280E-01    0.780E-01
RMM:   3    -0.116234800778E+04   -0.47630E-02   -0.46209E-03 12175   0.106E-01    0.394E-01
RMM:   4    -0.116235047137E+04   -0.24636E-02   -0.20981E-03 10926   0.587E-02    0.242E-01
RMM:   5    -0.116235323111E+04   -0.27597E-02   -0.23172E-03 10076   0.535E-02    0.177E-01
RMM:   6    -0.116235500633E+04   -0.17752E-02   -0.10886E-03  8905   0.357E-02    0.172E-01
RMM:   7    -0.116235798458E+04   -0.29782E-02   -0.18440E-03  9423   0.485E-02    0.171E-01
RMM:   8    -0.116236083294E+04   -0.28484E-02   -0.19310E-03  9361   0.497E-02    0.171E-01
RMM:   9    -0.116236166227E+04   -0.82933E-03   -0.56107E-04  8490   0.219E-02    0.173E-01
RMM:  10    -0.116235412672E+04    0.75356E-02   -0.69450E-03 10672   0.107E-01    0.188E-01
RMM:  11    -0.116234394820E+04    0.10179E-01   -0.17119E-02 11242   0.160E-01    0.220E-01
RMM:  12    -0.116234717160E+04   -0.32234E-02   -0.10326E-03  9399   0.374E-02    0.213E-01
RMM:  13    -0.116235693274E+04   -0.97611E-02   -0.14780E-02 11124   0.155E-01    0.184E-01
RMM:  14    -0.116236487985E+04   -0.79471E-02   -0.19143E-02 11367   0.172E-01    0.235E-01
RMM:  15    -0.116236964836E+04   -0.47685E-02   -0.10303E-02 10972   0.116E-01    0.275E-01
RMM:  16    -0.116236957898E+04    0.69375E-04   -0.12093E-03  9167   0.293E-02    0.284E-01
RMM:  17    -0.116237071390E+04   -0.11349E-02   -0.17243E-04  7639   0.187E-02    0.265E-01
RMM:  18    -0.116237436888E+04   -0.36550E-02   -0.14795E-03  9402   0.471E-02    0.236E-01
RMM:  19    -0.116237552646E+04   -0.11576E-02   -0.11875E-03  9428   0.457E-02    0.212E-01
RMM:  20    -0.116237401619E+04    0.15103E-02   -0.78646E-04  8728   0.384E-02    0.236E-01
RMM:  21    -0.116237419270E+04   -0.17651E-03   -0.17768E-04  6814   0.139E-02    0.241E-01
RMM:  22    -0.116237420198E+04   -0.92762E-05   -0.29146E-05  6260   0.840E-03
   2 F= -.11623742E+04 E0= -.11623729E+04  d E =-.343488E-01  mag=     5.9777
       N       E                     dE             d eps       ncg     rms          rms(c)
DAV:   1    -0.116237449547E+04   -0.30277E-03   -0.66104E-01 12752   0.821E-01    0.482E-01
RMM:   2    -0.116237999774E+04   -0.55023E-02   -0.17972E-02 12307   0.175E-01    0.312E-01
RMM:   3    -0.116238186608E+04   -0.18683E-02   -0.18441E-03 11626   0.667E-02    0.231E-01
RMM:   4    -0.116238414478E+04   -0.22787E-02   -0.13337E-03  9513   0.426E-02    0.194E-01
RMM:   5    -0.116238709832E+04   -0.29535E-02   -0.16132E-03  9481   0.461E-02    0.181E-01
RMM:   6    -0.116238987075E+04   -0.27724E-02   -0.15522E-03  9282   0.437E-02    0.173E-01
RMM:   7    -0.116239859380E+04   -0.87231E-02   -0.11684E-02 10957   0.128E-01    0.161E-01
RMM:   8    -0.116240305561E+04   -0.44618E-02   -0.56721E-03 10490   0.810E-02    0.159E-01
RMM:   9    -0.116240369715E+04   -0.64154E-03   -0.10026E-03  9250   0.270E-02    0.163E-01
RMM:  10    -0.116239980952E+04    0.38876E-02   -0.16646E-03  9423   0.518E-02    0.176E-01
RMM:  11    -0.116239258188E+04    0.72276E-02   -0.67189E-03 10455   0.944E-02    0.200E-01
RMM:  12    -0.116239914715E+04   -0.65653E-02   -0.30775E-03 10178   0.727E-02    0.189E-01
RMM:  13    -0.116240727627E+04   -0.81291E-02   -0.11219E-02 10878   0.120E-01    0.160E-01
RMM:  14    -0.116241400522E+04   -0.67290E-02   -0.97710E-03 10709   0.105E-01    0.172E-01
RMM:  15    -0.116241914392E+04   -0.51387E-02   -0.70068E-03 10509   0.827E-02    0.190E-01
RMM:  16    -0.116241118906E+04    0.79549E-02   -0.58076E-03 10519   0.932E-02    0.204E-01
RMM:  17    -0.116242079862E+04   -0.96096E-02   -0.94119E-03 10770   0.111E-01    0.189E-01
RMM:  18    -0.116243557327E+04   -0.14775E-01   -0.53625E-02 11808   0.255E-01    0.220E-01
RMM:  19    -0.116243812754E+04   -0.25543E-02   -0.47051E-03 11141   0.609E-02    0.200E-01
RMM:  20    -0.116243826257E+04   -0.13503E-03   -0.37850E-04  8110   0.194E-02    0.199E-01
RMM:  21    -0.116243883570E+04   -0.57313E-03   -0.17700E-04  7524   0.150E-02    0.206E-01
RMM:  22    -0.116244030049E+04   -0.14648E-02   -0.89763E-04  8478   0.265E-02    0.221E-01
RMM:  23    -0.116244164385E+04   -0.13434E-02   -0.24379E-03  9377   0.497E-02    0.258E-01
RMM:  24    -0.116243373978E+04    0.79041E-02   -0.13034E-02 11241   0.140E-01    0.182E-01
RMM:  25    -0.116243554415E+04   -0.18044E-02   -0.12530E-03  8933   0.299E-02    0.203E-01
RMM:  26    -0.116243532964E+04    0.21452E-03   -0.50675E-04  7278   0.151E-02    0.208E-01
RMM:  27    -0.116243562075E+04   -0.29112E-03   -0.65241E-05  6551   0.969E-03    0.214E-01
RMM:  28    -0.116243783267E+04   -0.22119E-02   -0.77249E-04  8532   0.319E-02    0.234E-01
RMM:  29    -0.116244397123E+04   -0.61386E-02   -0.59518E-03 10426   0.833E-02    0.275E-01
RMM:  30    -0.116245080252E+04   -0.68313E-02   -0.87191E-03 10561   0.956E-02    0.318E-01
RMM:  31    -0.116244337069E+04    0.74318E-02   -0.46409E-03 10247   0.808E-02    0.268E-01
RMM:  32    -0.116243997921E+04    0.33915E-02   -0.21789E-03  9139   0.499E-02    0.279E-01
RMM:  33    -0.116244528686E+04   -0.53077E-02   -0.26725E-03  9790   0.609E-02    0.277E-01
RMM:  34    -0.116245991765E+04   -0.14631E-01   -0.63924E-02 11878   0.274E-01    0.309E-01
RMM:  35    -0.116246592152E+04   -0.60039E-02   -0.13454E-02 11609   0.994E-02    0.262E-01
RMM:  36    -0.116246985390E+04   -0.39324E-02   -0.23397E-03  9674   0.426E-02    0.226E-01
RMM:  37    -0.116247123181E+04   -0.13779E-02   -0.19788E-03  9313   0.401E-02    0.249E-01
RMM:  38    -0.116247141412E+04   -0.18231E-03   -0.26221E-04  8072   0.145E-02    0.246E-01
RMM:  39    -0.116247126636E+04    0.14775E-03   -0.35280E-05  6599   0.969E-03    0.243E-01
RMM:  40    -0.116247155722E+04   -0.29086E-03   -0.95443E-05  6913   0.132E-02
   3 F= -.11624716E+04 E0= -.11624703E+04  d E =-.973552E-01  mag=     5.9779
       N       E                     dE             d eps       ncg     rms          rms(c)
DAV:   1    -0.116247243848E+04   -0.11721E-02   -0.63284E-03 15192   0.905E-02    0.226E-01
RMM:   2    -0.116247636397E+04   -0.39255E-02   -0.24087E-03 10566   0.652E-02    0.196E-01
RMM:   3    -0.116247760036E+04   -0.12364E-02   -0.52233E-04  8197   0.266E-02    0.153E-01
RMM:   4    -0.116247902357E+04   -0.14232E-02   -0.82969E-04  8082   0.226E-02    0.149E-01
RMM:   5    -0.116248097492E+04   -0.19513E-02   -0.95177E-04  8264   0.279E-02    0.143E-01
RMM:   6    -0.116248584914E+04   -0.48742E-02   -0.48265E-03 10078   0.692E-02    0.133E-01
RMM:   7    -0.116249797920E+04   -0.12130E-01   -0.45347E-02 11610   0.224E-01    0.137E-01
RMM:   8    -0.116250365005E+04   -0.56708E-02   -0.18301E-02 11461   0.120E-01    0.151E-01
RMM:   9    -0.116250374892E+04   -0.98871E-04   -0.14721E-03 10093   0.332E-02    0.162E-01
RMM:  10    -0.116250480479E+04   -0.10559E-02   -0.33603E-04  7864   0.185E-02    0.149E-01
RMM:  11    -0.116250934448E+04   -0.45397E-02   -0.77211E-03 10520   0.887E-02    0.148E-01
RMM:  12    -0.116251129782E+04   -0.19533E-02   -0.26643E-03  9576   0.538E-02    0.143E-01
RMM:  13    -0.116251572999E+04   -0.44322E-02   -0.23854E-02 11306   0.159E-01    0.167E-01
RMM:  14    -0.116251674669E+04   -0.10167E-02   -0.22010E-03  9958   0.573E-02    0.129E-01
RMM:  15    -0.116251935771E+04   -0.26110E-02   -0.35524E-02 11445   0.196E-01    0.190E-01
RMM:  16    -0.116252014050E+04   -0.78279E-03   -0.69163E-03 10634   0.103E-01    0.120E-01
RMM:  17    -0.116252294610E+04   -0.28056E-02   -0.42922E-03 10232   0.724E-02    0.111E-01
RMM:  18    -0.116252296438E+04   -0.18280E-04   -0.64397E-04  8589   0.186E-02
   4 F= -.11625230E+04 E0= -.11625216E+04  d E =-.514072E-01  mag=     5.9774
       N       E                     dE             d eps       ncg     rms          rms(c)
DAV:   1    -0.116252184191E+04    0.11042E-02   -0.33319E-01 12664   0.565E-01    0.368E-01
RMM:   2    -0.116252478786E+04   -0.29460E-02   -0.89233E-03 12267   0.120E-01    0.219E-01
RMM:   3    -0.116252537719E+04   -0.58933E-03   -0.64306E-04  9812   0.433E-02    0.124E-01
RMM:   4    -0.116252597526E+04   -0.59806E-03   -0.58666E-04  8389   0.252E-02    0.817E-02
RMM:   5    -0.116252652437E+04   -0.54911E-03   -0.43439E-04  7957   0.198E-02    0.663E-02
RMM:   6    -0.116252687919E+04   -0.35482E-03   -0.24407E-04  7403   0.135E-02    0.619E-02
RMM:   7    -0.116252775801E+04   -0.87881E-03   -0.86341E-04  8401   0.280E-02    0.564E-02
RMM:   8    -0.116252900667E+04   -0.12487E-02   -0.24443E-03  9363   0.482E-02    0.500E-02
RMM:   9    -0.116252968021E+04   -0.67354E-03   -0.13023E-03  8662   0.310E-02    0.472E-02
RMM:  10    -0.116253048748E+04   -0.80727E-03   -0.16744E-03  9024   0.376E-02    0.414E-02
RMM:  11    -0.116253163558E+04   -0.11481E-02   -0.76741E-03 10383   0.867E-02    0.424E-02
RMM:  12    -0.116253195383E+04   -0.31825E-03   -0.66447E-04  8541   0.223E-02    0.303E-02
RMM:  13    -0.116253248001E+04   -0.52618E-03   -0.27454E-03  9325   0.534E-02    0.303E-02
RMM:  14    -0.116253282158E+04   -0.34157E-03   -0.17845E-03  8836   0.368E-02    0.210E-02
RMM:  15    -0.116253296460E+04   -0.14302E-03   -0.33886E-03  9437   0.541E-02    0.263E-02
RMM:  16    -0.116253318055E+04   -0.21595E-03   -0.44942E-04  8209   0.190E-02    0.968E-03
RMM:  17    -0.116253320948E+04   -0.28933E-04   -0.24510E-04  7176   0.157E-02
   5 F= -.11625332E+04 E0= -.11625319E+04  d E =-.102451E-01  mag=     5.9771
       N       E                     dE             d eps       ncg     rms          rms(c)
DAV:   1    -0.116253409720E+04   -0.91665E-03   -0.56526E-02 13064   0.237E-01    0.123E-01
RMM:   2    -0.116253437763E+04   -0.28042E-03   -0.12345E-03 11458   0.433E-02    0.693E-02
RMM:   3    -0.116253441347E+04   -0.35844E-04   -0.70470E-05  7070   0.165E-02    0.327E-02
RMM:   4    -0.116253441667E+04   -0.32045E-05   -0.25437E-05  6819   0.664E-03    0.169E-02
RMM:   5    -0.116253442025E+04   -0.35722E-05   -0.93753E-06  6020   0.436E-03    0.139E-02
RMM:   6    -0.116253442215E+04   -0.19020E-05   -0.38442E-06  4543   0.305E-03    0.629E-03
RMM:   7    -0.116253442384E+04   -0.16952E-05   -0.23412E-06  3428   0.241E-03    0.569E-03
RMM:   8    -0.116253442709E+04   -0.32465E-05   -0.33665E-06  3696   0.268E-03
   6 F= -.11625344E+04 E0= -.11625331E+04  d E =-.121761E-02  mag=     5.9772
       N       E                     dE             d eps       ncg     rms          rms(c)
DAV:   1    -0.116253518451E+04   -0.76067E-03   -0.52446E-02 12384   0.226E-01    0.125E-01
RMM:   2    -0.116253545673E+04   -0.27222E-03   -0.11243E-03 11274   0.417E-02    0.680E-02
RMM:   3    -0.116253549372E+04   -0.36996E-04   -0.66474E-05  6984   0.160E-02    0.314E-02
RMM:   4    -0.116253550031E+04   -0.65862E-05   -0.22907E-05  6636   0.676E-03    0.180E-02
RMM:   5    -0.116253550566E+04   -0.53480E-05   -0.10478E-05  5777   0.425E-03    0.137E-02
RMM:   6    -0.116253550952E+04   -0.38628E-05   -0.40711E-06  4248   0.316E-03    0.815E-03
RMM:   7    -0.116253551239E+04   -0.28729E-05   -0.23658E-06  3247   0.245E-03    0.717E-03
RMM:   8    -0.116253551973E+04   -0.73385E-05   -0.72454E-06  4289   0.338E-03
   7 F= -.11625355E+04 E0= -.11625342E+04  d E =-.109264E-02  mag=     5.9772
       N       E                     dE             d eps       ncg     rms          rms(c)
DAV:   1    -0.116253601550E+04   -0.50310E-03   -0.24903E-01 12504   0.488E-01    0.282E-01
RMM:   2    -0.116253736002E+04   -0.13445E-02   -0.52689E-03 12695   0.892E-02    0.151E-01
RMM:   3    -0.116253753684E+04   -0.17683E-03   -0.29768E-04  8184   0.303E-02    0.671E-02
RMM:   4    -0.116253755499E+04   -0.18141E-04   -0.84895E-05  7217   0.125E-02    0.315E-02
RMM:   5    -0.116253757434E+04   -0.19350E-04   -0.38360E-05  6923   0.778E-03    0.219E-02
RMM:   6    -0.116253758527E+04   -0.10931E-04   -0.13822E-05  6454   0.518E-03    0.147E-02
RMM:   7    -0.116253759358E+04   -0.83109E-05   -0.69411E-06  5420   0.384E-03    0.134E-02
RMM:   8    -0.116253761459E+04   -0.21009E-04   -0.17544E-05  5525   0.484E-03
   8 F= -.11625376E+04 E0= -.11625363E+04  d E =-.209485E-02  mag=     5.9771
       N       E                     dE             d eps       ncg     rms          rms(c)
DAV:   1    -0.116253754719E+04    0.46385E-04   -0.33811E-01 12504   0.576E-01    0.321E-01
RMM:   2    -0.116253931275E+04   -0.17656E-02   -0.73001E-03 12879   0.105E-01    0.173E-01
RMM:   3    -0.116253953928E+04   -0.22653E-03   -0.40433E-04  8735   0.342E-02    0.782E-02
RMM:   4    -0.116253957275E+04   -0.33465E-04   -0.11858E-04  7336   0.146E-02    0.366E-02
RMM:   5    -0.116253960906E+04   -0.36311E-04   -0.60216E-05  7024   0.917E-03    0.253E-02
RMM:   6    -0.116253962848E+04   -0.19421E-04   -0.20775E-05  6692   0.608E-03    0.189E-02
RMM:   7    -0.116253964569E+04   -0.17210E-04   -0.12673E-05  6069   0.466E-03    0.177E-02
RMM:   8    -0.116253968733E+04   -0.41640E-04   -0.32223E-05  6209   0.636E-03
   9 F= -.11625397E+04 E0= -.11625384E+04  d E =-.207274E-02  mag=     5.9771
       N       E                     dE             d eps       ncg     rms          rms(c)
DAV:   1    -0.116253982257E+04   -0.17688E-03   -0.95121E-01 12544   0.100E+00    0.408E-01
RMM:   2    -0.116254333653E+04   -0.35140E-02   -0.20847E-02 12940   0.181E-01    0.227E-01
RMM:   3    -0.116254371728E+04   -0.38074E-03   -0.13691E-03 11117   0.574E-02    0.113E-01
RMM:   4    -0.116254371523E+04    0.20483E-05   -0.25610E-04  8072   0.212E-02    0.577E-02
RMM:   5    -0.116254376444E+04   -0.49207E-04   -0.13674E-04  7393   0.137E-02    0.306E-02
RMM:   6    -0.116254379153E+04   -0.27097E-04   -0.36584E-05  7027   0.905E-03    0.224E-02
RMM:   7    -0.116254381642E+04   -0.24885E-04   -0.22860E-05  6875   0.617E-03    0.206E-02
RMM:   8    -0.116254386715E+04   -0.50733E-04   -0.37948E-05  6815   0.717E-03
  10 F= -.11625439E+04 E0= -.11625426E+04  d E =-.417982E-02  mag=     5.9771
       N       E                     dE             d eps       ncg     rms          rms(c)
DAV:   1    -0.116253326830E+04    0.10548E-01   -0.29034E+00 12608   0.175E+00    0.819E-01
RMM:   2    -0.116254578964E+04   -0.12521E-01   -0.63249E-02 13140   0.316E-01    0.445E-01
RMM:   3    -0.116254720784E+04   -0.14182E-02   -0.38576E-03 13169   0.989E-02    0.202E-01
RMM:   4    -0.116254723785E+04   -0.30015E-04   -0.90937E-04 11289   0.369E-02    0.939E-02
RMM:   5    -0.116254737411E+04   -0.13626E-03   -0.34059E-04  8232   0.228E-02    0.513E-02
RMM:   6    -0.116254745257E+04   -0.78462E-04   -0.93698E-05  7271   0.129E-02    0.360E-02
RMM:   7    -0.116254756381E+04   -0.11123E-03   -0.88671E-05  7200   0.118E-02    0.332E-02
RMM:   8    -0.116254768995E+04   -0.12615E-03   -0.10264E-04  7146   0.108E-02    0.292E-02
RMM:   9    -0.116254782997E+04   -0.14002E-03   -0.13654E-04  7192   0.110E-02    0.265E-02
RMM:  10    -0.116254804619E+04   -0.21622E-03   -0.39595E-04  7703   0.191E-02    0.217E-02
RMM:  11    -0.116254825847E+04   -0.21228E-03   -0.76481E-04  8284   0.264E-02    0.173E-02
RMM:  12    -0.116254837659E+04   -0.11813E-03   -0.37949E-04  7537   0.167E-02    0.145E-02
RMM:  13    -0.116254843890E+04   -0.62303E-04   -0.15812E-04  6954   0.107E-02
  11 F= -.11625484E+04 E0= -.11625471E+04  d E =-.457175E-02  mag=     5.9766
       N       E                     dE             d eps       ncg     rms          rms(c)
DAV:   1    -0.116252951533E+04    0.18861E-01   -0.43467E+00 12576   0.213E+00    0.101E+00
RMM:   2    -0.116254848925E+04   -0.18974E-01   -0.93780E-02 13171   0.385E-01    0.548E-01
RMM:   3    -0.116255063777E+04   -0.21485E-02   -0.57318E-03 13291   0.119E-01    0.240E-01
RMM:   4    -0.116255059283E+04    0.44937E-04   -0.12472E-03 12138   0.422E-02    0.112E-01
RMM:   5    -0.116255068980E+04   -0.96974E-04   -0.44702E-04  9099   0.244E-02    0.536E-02
RMM:   6    -0.116255074730E+04   -0.57499E-04   -0.89765E-05  7339   0.138E-02    0.319E-02
RMM:   7    -0.116255081854E+04   -0.71239E-04   -0.69651E-05  7178   0.103E-02    0.278E-02
RMM:   8    -0.116255090684E+04   -0.88298E-04   -0.72979E-05  7137   0.996E-03
  12 F= -.11625509E+04 E0= -.11625496E+04  d E =-.246794E-02  mag=     5.9766
       N       E                     dE             d eps       ncg     rms          rms(c)
DAV:   1    -0.116245039202E+04    0.10043E+00   -0.18361E+01 12504   0.433E+00    0.213E+00
RMM:   2    -0.116253291462E+04   -0.82523E-01   -0.39696E-01 13175   0.799E-01    0.122E+00
RMM:   3    -0.116254294154E+04   -0.10027E-01   -0.25427E-02 13803   0.243E-01    0.511E-01
RMM:   4    -0.116254277649E+04    0.16505E-03   -0.53032E-03 14682   0.843E-02    0.260E-01
RMM:   5    -0.116254318712E+04   -0.41063E-03   -0.22076E-03 12929   0.461E-02    0.120E-01
RMM:   6    -0.116254342749E+04   -0.24037E-03   -0.36749E-04  8902   0.236E-02    0.724E-02
RMM:   7    -0.116254363562E+04   -0.20812E-03   -0.18322E-04  7851   0.152E-02    0.586E-02
RMM:   8    -0.116254404912E+04   -0.41350E-03   -0.35835E-04  7982   0.212E-02    0.494E-02
RMM:   9    -0.116254431952E+04   -0.27040E-03   -0.26551E-04  7715   0.162E-02    0.431E-02
RMM:  10    -0.116254455920E+04   -0.23969E-03   -0.22913E-04  7617   0.148E-02    0.387E-02
RMM:  11    -0.116254512425E+04   -0.56504E-03   -0.14992E-03  9089   0.405E-02    0.310E-02
RMM:  12    -0.116254540621E+04   -0.28197E-03   -0.82871E-04  8400   0.272E-02    0.236E-02
RMM:  13    -0.116254553724E+04   -0.13102E-03   -0.28561E-04  7618   0.148E-02    0.200E-02
RMM:  14    -0.116254566987E+04   -0.13264E-03   -0.31041E-04  7694   0.163E-02    0.175E-02
RMM:  15    -0.116254579540E+04   -0.12553E-03   -0.44765E-04  7770   0.198E-02    0.144E-02
RMM:  16    -0.116254587164E+04   -0.76237E-04   -0.22745E-04  7123   0.122E-02
  13 F= -.11625459E+04 E0= -.11625445E+04  d E =0.503520E-02  mag=     5.9764
       N       E                     dE             d eps       ncg     rms          rms(c)
DAV:   1    -0.116242904448E+04    0.11675E+00   -0.17889E+01 12560   0.407E+00    0.264E+00
RMM:   2    -0.116253957111E+04   -0.11053E+00   -0.37876E-01 12911   0.761E-01    0.148E+00
RMM:   3    -0.116255421981E+04   -0.14649E-01   -0.22022E-02 13034   0.247E-01    0.603E-01
RMM:   4    -0.116255442333E+04   -0.20352E-03   -0.51688E-03 14198   0.834E-02    0.281E-01
RMM:   5    -0.116255497319E+04   -0.54985E-03   -0.22049E-03 12594   0.490E-02    0.969E-02
RMM:   6    -0.116255518867E+04   -0.21548E-03   -0.36384E-04  8638   0.231E-02    0.740E-02
RMM:   7    -0.116255538950E+04   -0.20083E-03   -0.17876E-04  7766   0.147E-02    0.604E-02
RMM:   8    -0.116255580942E+04   -0.41992E-03   -0.41078E-04  8024   0.225E-02    0.491E-02
RMM:   9    -0.116255603587E+04   -0.22645E-03   -0.24910E-04  7611   0.152E-02    0.427E-02
RMM:  10    -0.116255635397E+04   -0.31811E-03   -0.41502E-04  7821   0.207E-02    0.352E-02
RMM:  11    -0.116255677655E+04   -0.42258E-03   -0.14835E-03  9124   0.399E-02    0.254E-02
RMM:  12    -0.116255692490E+04   -0.14835E-03   -0.35303E-04  7806   0.173E-02    0.216E-02
RMM:  13    -0.116255701797E+04   -0.93067E-04   -0.15580E-04  7226   0.125E-02
  14 F= -.11625570E+04 E0= -.11625557E+04  d E =-.111463E-01  mag=     5.9766
       N       E                     dE             d eps       ncg     rms          rms(c)
DAV:   1    -0.116255594087E+04    0.98404E-03   -0.15416E+00 12520   0.131E+00    0.328E-01
RMM:   2    -0.116255961812E+04   -0.36772E-02   -0.36837E-02 12869   0.248E-01    0.215E-01
RMM:   3    -0.116255977659E+04   -0.15847E-03   -0.26172E-03 12516   0.714E-02    0.146E-01
RMM:   4    -0.116255967717E+04    0.99419E-04   -0.35047E-04  8833   0.221E-02    0.869E-02
RMM:   5    -0.116255967283E+04    0.43417E-05   -0.20605E-04  7768   0.164E-02    0.255E-02
RMM:   6    -0.116255968395E+04   -0.11121E-04   -0.36567E-05  7096   0.981E-03    0.183E-02
RMM:   7    -0.116255969337E+04   -0.94288E-05   -0.18640E-05  6919   0.577E-03    0.145E-02
RMM:   8    -0.116255970717E+04   -0.13795E-04   -0.16209E-05  6744   0.544E-03
  15 F= -.11625597E+04 E0= -.11625584E+04  d E =-.268920E-02  mag=     5.9763
       N       E                     dE             d eps       ncg     rms          rms(c)
DAV:   1    -0.116255864190E+04    0.10515E-02   -0.10762E+00 12520   0.111E+00    0.350E-01
RMM:   2    -0.116256191513E+04   -0.32732E-02   -0.24341E-02 13004   0.196E-01    0.197E-01
RMM:   3    -0.116256216993E+04   -0.25481E-03   -0.14831E-03 11629   0.622E-02    0.102E-01
RMM:   4    -0.116256212859E+04    0.41345E-04   -0.25877E-04  8094   0.212E-02    0.523E-02
RMM:   5    -0.116256213982E+04   -0.11231E-04   -0.12066E-04  7316   0.136E-02    0.195E-02
RMM:   6    -0.116256215076E+04   -0.10944E-04   -0.30794E-05  7024   0.899E-03    0.134E-02
RMM:   7    -0.116256215916E+04   -0.83998E-05   -0.17637E-05  6802   0.568E-03    0.124E-02
RMM:   8    -0.116256217085E+04   -0.11689E-04   -0.14841E-05  6674   0.532E-03
  16 F= -.11625622E+04 E0= -.11625608E+04  d E =-.246368E-02  mag=     5.9763
       N       E                     dE             d eps       ncg     rms          rms(c)
DAV:   1    -0.116256110422E+04    0.10549E-02   -0.77266E-01 12592   0.930E-01    0.345E-01
RMM:   2    -0.116256382188E+04   -0.27177E-02   -0.17328E-02 12931   0.166E-01    0.189E-01
RMM:   3    -0.116256407441E+04   -0.25253E-03   -0.10518E-03 10854   0.528E-02    0.917E-02
RMM:   4    -0.116256406286E+04    0.11550E-04   -0.18762E-04  7657   0.189E-02    0.478E-02
RMM:   5    -0.116256408789E+04   -0.25027E-04   -0.10272E-04  7248   0.123E-02    0.215E-02
RMM:   6    -0.116256410334E+04   -0.15451E-04   -0.28240E-05  7004   0.826E-03    0.154E-02
RMM:   7    -0.116256411887E+04   -0.15527E-04   -0.19352E-05  6786   0.574E-03    0.140E-02
RMM:   8    -0.116256414176E+04   -0.22892E-04   -0.20678E-05  6640   0.577E-03
  17 F= -.11625641E+04 E0= -.11625628E+04  d E =-.197091E-02  mag=     5.9762
       N       E                     dE             d eps       ncg     rms          rms(c)
DAV:   1    -0.116256230307E+04    0.18158E-02   -0.59422E-01 12608   0.795E-01    0.408E-01
RMM:   2    -0.116256530285E+04   -0.29998E-02   -0.12878E-02 13013   0.142E-01    0.215E-01
RMM:   3    -0.116256566249E+04   -0.35964E-03   -0.69218E-04 10253   0.454E-02    0.905E-02
RMM:   4    -0.116256568977E+04   -0.27284E-04   -0.17382E-04  7555   0.184E-02    0.421E-02
RMM:   5    -0.116256573144E+04   -0.41673E-04   -0.89868E-05  7162   0.113E-02    0.227E-02
RMM:   6    -0.116256575152E+04   -0.20076E-04   -0.26028E-05  6946   0.752E-03    0.181E-02
RMM:   7    -0.116256577334E+04   -0.21820E-04   -0.19242E-05  6708   0.568E-03    0.167E-02
RMM:   8    -0.116256581897E+04   -0.45632E-04   -0.42480E-05  6685   0.761E-03
  18 F= -.11625658E+04 E0= -.11625645E+04  d E =-.167721E-02  mag=     5.9761
       N       E                     dE             d eps       ncg     rms          rms(c)
DAV:   1    -0.116256528619E+04    0.48715E-03   -0.28917E-01 12800   0.570E-01    0.265E-01
RMM:   2    -0.116256663065E+04   -0.13445E-02   -0.64668E-03 12932   0.101E-01    0.141E-01
RMM:   3    -0.116256678000E+04   -0.14935E-03   -0.31268E-04  8371   0.325E-02    0.620E-02
RMM:   4    -0.116256680451E+04   -0.24518E-04   -0.97858E-05  7282   0.134E-02    0.306E-02
RMM:   5    -0.116256683469E+04   -0.30174E-04   -0.52127E-05  7018   0.887E-03    0.203E-02
RMM:   6    -0.116256685122E+04   -0.16528E-04   -0.19167E-05  6760   0.596E-03    0.159E-02
RMM:   7    -0.116256686532E+04   -0.14101E-04   -0.11683E-05  6068   0.480E-03    0.153E-02
RMM:   8    -0.116256691077E+04   -0.45449E-04   -0.47997E-05  6546   0.789E-03
  19 F= -.11625669E+04 E0= -.11625656E+04  d E =-.109179E-02  mag=     5.9762
       N       E                     dE             d eps       ncg     rms          rms(c)
DAV:   1    -0.116256674467E+04    0.12065E-03   -0.19316E-01 12624   0.471E-01    0.202E-01
RMM:   2    -0.116256757364E+04   -0.82897E-03   -0.44016E-03 12874   0.837E-02    0.108E-01
RMM:   3    -0.116256765960E+04   -0.85955E-04   -0.20789E-04  7777   0.273E-02    0.488E-02
RMM:   4    -0.116256767608E+04   -0.16480E-04   -0.66692E-05  7171   0.111E-02    0.254E-02
RMM:   5    -0.116256769670E+04   -0.20626E-04   -0.35261E-05  6910   0.732E-03    0.174E-02
RMM:   6    -0.116256770915E+04   -0.12442E-04   -0.14111E-05  6384   0.505E-03    0.133E-02
RMM:   7    -0.116256771862E+04   -0.94730E-05   -0.76726E-06  5338   0.397E-03    0.127E-02
RMM:   8    -0.116256774959E+04   -0.30973E-04   -0.30701E-05  6105   0.638E-03
  20 F= -.11625677E+04 E0= -.11625664E+04  d E =-.838825E-03  mag=     5.9761
