       N       E                     dE             d eps       ncg     rms          rms(c)
DAV:   1    -0.116040260152E+04   -0.11604E+04   -0.34708E-06  3648   0.290E-03    0.178E-03
RMM:   2    -0.116040260173E+04   -0.20876E-06   -0.94636E-07  1782   0.237E-03    0.155E-03
RMM:   3    -0.116040260180E+04   -0.70839E-07   -0.16643E-07   698   0.163E-03    0.115E-03
RMM:   4    -0.116040260185E+04   -0.49957E-07   -0.10531E-07   603   0.164E-03    0.107E-03
RMM:   5    -0.116040260191E+04   -0.60143E-07   -0.53447E-08   499   0.161E-03    0.111E-03
RMM:   6    -0.116040260207E+04   -0.15920E-06   -0.17292E-07   594   0.173E-03    0.959E-04
RMM:   7    -0.116040260222E+04   -0.15134E-06   -0.33006E-07   704   0.179E-03    0.101E-03
RMM:   8    -0.116040260233E+04   -0.10453E-06   -0.23914E-07   623   0.174E-03
   1 F= -.11604026E+04 E0= -.11604026E+04  d E =-.116040E+04  mag=     8.0000
       N       E                     dE             d eps       ncg     rms          rms(c)
DAV:   1    -0.116040330780E+04   -0.70558E-03   -0.11256E-01  6248   0.393E-01    0.846E-02
RMM:   2    -0.116040358420E+04   -0.27640E-03   -0.28026E-03  6346   0.695E-02    0.468E-02
RMM:   3    -0.116040358737E+04   -0.31695E-05   -0.12028E-04  3247   0.229E-02    0.272E-02
RMM:   4    -0.116040358318E+04    0.41933E-05   -0.36672E-05  3107   0.848E-03    0.156E-02
RMM:   5    -0.116040358293E+04    0.24668E-06   -0.13384E-05  3017   0.528E-03    0.987E-03
RMM:   6    -0.116040358357E+04   -0.64021E-06   -0.56904E-06  2554   0.376E-03    0.463E-03
RMM:   7    -0.116040358387E+04   -0.30457E-06   -0.22417E-06  1695   0.276E-03    0.236E-03
RMM:   8    -0.116040358408E+04   -0.20150E-06   -0.11608E-06  1270   0.230E-03
   2 F= -.11604036E+04 E0= -.11604036E+04  d E =-.981747E-03  mag=     8.0000
       N       E                     dE             d eps       ncg     rms          rms(c)
DAV:   1    -0.116040396805E+04   -0.38418E-03   -0.19847E-02  6080   0.164E-01    0.373E-02
RMM:   2    -0.116040401248E+04   -0.44428E-04   -0.48209E-04  4819   0.297E-02    0.226E-02
RMM:   3    -0.116040401457E+04   -0.20894E-05   -0.32942E-05  3096   0.117E-02    0.124E-02
RMM:   4    -0.116040401380E+04    0.76601E-06   -0.11182E-05  2964   0.478E-03    0.794E-03
RMM:   5    -0.116040401355E+04    0.25162E-06   -0.34208E-06  2196   0.321E-03    0.320E-03
RMM:   6    -0.116040401369E+04   -0.14242E-06   -0.10290E-06  1180   0.230E-03    0.134E-03
RMM:   7    -0.116040401378E+04   -0.84940E-07   -0.47035E-07   990   0.215E-03    0.979E-04
RMM:   8    -0.116040401386E+04   -0.77678E-07   -0.30469E-07   742   0.203E-03
   3 F= -.11604040E+04 E0= -.11604040E+04  d E =-.429781E-03  mag=     8.0000
       N       E                     dE             d eps       ncg     rms          rms(c)
DAV:   1    -0.116040450829E+04   -0.49451E-03   -0.41084E-02  6096   0.236E-01    0.501E-02
RMM:   2    -0.116040460651E+04   -0.98220E-04   -0.99689E-04  6060   0.416E-02    0.259E-02
RMM:   3    -0.116040460878E+04   -0.22693E-05   -0.49070E-05  3136   0.156E-02    0.155E-02
RMM:   4    -0.116040460806E+04    0.72108E-06   -0.15716E-05  2908   0.546E-03    0.102E-02
RMM:   5    -0.116040460771E+04    0.34750E-06   -0.45062E-06  2288   0.342E-03    0.690E-03
RMM:   6    -0.116040460789E+04   -0.17375E-06   -0.25253E-06  1830   0.265E-03    0.276E-03
RMM:   7    -0.116040460801E+04   -0.12781E-06   -0.90764E-07  1219   0.226E-03    0.140E-03
RMM:   8    -0.116040460808E+04   -0.61205E-07   -0.29216E-07   720   0.194E-03
   4 F= -.11604046E+04 E0= -.11604046E+04  d E =-.594219E-03  mag=     8.0000
