       N       E                     dE             d eps       ncg     rms          rms(c)
DAV:   1    -0.117536384015E+04   -0.11754E+04   -0.31206E-06  3632   0.281E-03    0.361E-03
RMM:   2    -0.117536384005E+04    0.98371E-07   -0.28296E-07  1256   0.185E-03    0.232E-03
RMM:   3    -0.117536383998E+04    0.72061E-07   -0.33907E-08   938   0.168E-03    0.642E-04
RMM:   4    -0.117536383997E+04    0.44820E-08   -0.68455E-09   404   0.167E-03    0.397E-04
RMM:   5    -0.117536383997E+04    0.31432E-08   -0.42218E-14   345   0.166E-03    0.201E-04
RMM:   6    -0.117536383997E+04    0.43656E-09   -0.16143E-09   297   0.167E-03    0.769E-05
RMM:   7    -0.117536383997E+04    0.13097E-09    0.00000E+00   267   0.167E-03    0.346E-05
RMM:   8    -0.117536383997E+04   -0.11642E-09    0.00000E+00   251   0.167E-03
   1 F= -.11753638E+04 E0= -.11753546E+04  d E =-.117536E+04  mag=     1.9495
       N       E                     dE             d eps       ncg     rms          rms(c)
DAV:   1    -0.117536384694E+04   -0.69704E-05   -0.89613E-02  6144   0.341E-01    0.103E-01
RMM:   2    -0.117536387041E+04   -0.23469E-04   -0.32008E-03  6094   0.685E-02    0.955E-02
RMM:   3    -0.117536379949E+04    0.70919E-04   -0.11782E-04  3949   0.151E-02    0.629E-02
RMM:   4    -0.117536375232E+04    0.47165E-04   -0.15480E-04  3673   0.129E-02    0.286E-02
RMM:   5    -0.117536374116E+04    0.11164E-04   -0.27771E-05  3366   0.564E-03    0.161E-02
RMM:   6    -0.117536374118E+04   -0.22686E-07   -0.71760E-06  2593   0.303E-03    0.106E-02
RMM:   7    -0.117536374155E+04   -0.36892E-06   -0.27069E-06  2143   0.232E-03    0.635E-03
RMM:   8    -0.117536374153E+04    0.25466E-07   -0.56910E-07  1615   0.202E-03
   2 F= -.11753637E+04 E0= -.11753544E+04  d E =0.984435E-04  mag=     1.9496
       N       E                     dE             d eps       ncg     rms          rms(c)
DAV:   1    -0.117536421396E+04   -0.47240E-03   -0.24548E-02  6240   0.176E-01    0.587E-02
RMM:   2    -0.117536420642E+04    0.75380E-05   -0.94977E-04  5723   0.374E-02    0.618E-02
RMM:   3    -0.117536418438E+04    0.22035E-04   -0.34682E-05  3245   0.783E-03    0.420E-02
RMM:   4    -0.117536416781E+04    0.16569E-04   -0.53975E-05  3341   0.755E-03    0.190E-02
RMM:   5    -0.117536416270E+04    0.51189E-05   -0.99287E-06  2759   0.341E-03    0.999E-03
RMM:   6    -0.117536416251E+04    0.18587E-06   -0.13647E-06  1633   0.197E-03    0.642E-03
RMM:   7    -0.117536416255E+04   -0.40469E-07   -0.67930E-07  1290   0.191E-03    0.273E-03
RMM:   8    -0.117536416256E+04   -0.56461E-08   -0.17400E-07   750   0.179E-03
   3 F= -.11753642E+04 E0= -.11753549E+04  d E =-.421030E-03  mag=     1.9495
