       N       E                     dE             d eps       ncg     rms          rms(c)
DAV:   1     0.118993309211E+05    0.11899E+05   -0.42141E+05  6160   0.131E+03
DAV:   2     0.639045979312E+03   -0.11260E+05   -0.10062E+05  6144   0.374E+02
DAV:   3    -0.138011784899E+04   -0.20192E+04   -0.19477E+04  6616   0.164E+02
DAV:   4    -0.151091030970E+04   -0.13079E+03   -0.12850E+03  8144   0.435E+01
DAV:   5    -0.151886105969E+04   -0.79507E+01   -0.79187E+01 11024   0.925E+00    0.184E+02
RMM:   6    -0.117492549002E+04    0.34394E+03   -0.16009E+03  6230   0.343E+01    0.972E+01
RMM:   7    -0.116164982628E+04    0.13276E+02   -0.59116E+01  6381   0.977E+00    0.565E+01
RMM:   8    -0.116782592893E+04   -0.61761E+01   -0.29237E+01  6281   0.627E+00    0.160E+01
RMM:   9    -0.116872928050E+04   -0.90335E+00   -0.25659E+00  7386   0.153E+00    0.768E+00
RMM:  10    -0.116986254252E+04   -0.11333E+01   -0.20002E+00  6689   0.122E+00    0.527E+00
RMM:  11    -0.117106482069E+04   -0.12023E+01   -0.11306E+00  6561   0.954E-01    0.265E+00
RMM:  12    -0.117132757015E+04   -0.26275E+00   -0.33797E-01  7402   0.512E-01    0.168E+00
RMM:  13    -0.117141627084E+04   -0.88701E-01   -0.16510E-01  7373   0.350E-01    0.129E+00
RMM:  14    -0.117144053107E+04   -0.24260E-01   -0.56275E-02  7368   0.210E-01    0.736E-01
RMM:  15    -0.117144283265E+04   -0.23016E-02   -0.18894E-02  7995   0.115E-01    0.250E-01
RMM:  16    -0.117144456389E+04   -0.17312E-02   -0.73327E-03  7917   0.657E-02    0.216E-01
RMM:  17    -0.117144469597E+04   -0.13207E-03   -0.21042E-03  7278   0.351E-02    0.812E-02
RMM:  18    -0.117144475241E+04   -0.56445E-04   -0.87072E-04  6689   0.235E-02
   1 F= -.11714448E+04 E0= -.11714366E+04  d E =-.117144E+04  mag=     1.9791
       N       E                     dE             d eps       ncg     rms          rms(c)
DAV:   1    -0.114866952032E+04    0.22775E+02   -0.23240E+03  6656   0.427E+01    0.372E+01
RMM:   2    -0.116086695269E+04   -0.12197E+02   -0.14920E+02  6144   0.982E+00    0.212E+01
RMM:   3    -0.116156514858E+04   -0.69820E+00   -0.93553E+00  6397   0.245E+00    0.147E+01
RMM:   4    -0.116222272089E+04   -0.65757E+00   -0.60397E+00  6472   0.170E+00    0.961E+00
RMM:   5    -0.116126718533E+04    0.95554E+00   -0.18295E+00  6498   0.902E-01    0.434E+00
RMM:   6    -0.116100725614E+04    0.25993E+00   -0.50102E-01  6556   0.516E-01    0.312E+00
RMM:   7    -0.116099079267E+04    0.16463E-01   -0.11777E-01  8703   0.217E-01    0.298E+00
RMM:   8    -0.116102837725E+04   -0.37585E-01   -0.43618E-02  8476   0.129E-01    0.251E+00
RMM:   9    -0.116110440707E+04   -0.76030E-01   -0.19504E-01  6112   0.318E-01    0.137E+00
RMM:  10    -0.116110301416E+04    0.13929E-02   -0.11803E-01  6237   0.221E-01    0.806E-01
RMM:  11    -0.116110987219E+04   -0.68580E-02   -0.17490E-02  6157   0.102E-01    0.599E-01
RMM:  12    -0.116111225356E+04   -0.23814E-02   -0.96221E-03  5902   0.710E-02    0.310E-01
RMM:  13    -0.116111205224E+04    0.20132E-03   -0.40678E-03  5706   0.444E-02    0.157E-01
RMM:  14    -0.116111239017E+04   -0.33793E-03   -0.57457E-04  5047   0.208E-02    0.103E-01
RMM:  15    -0.116111258068E+04   -0.19052E-03   -0.38917E-04  4768   0.167E-02    0.621E-02
RMM:  16    -0.116111265010E+04   -0.69417E-04   -0.13930E-04  4124   0.110E-02
   2 F= -.11611127E+04 E0= -.11611085E+04  d E =0.103321E+02  mag=     1.9541
       N       E                     dE             d eps       ncg     rms          rms(c)
DAV:   1    -0.115091934993E+04    0.10193E+02   -0.19144E+03  6160   0.349E+01    0.368E+01
RMM:   2    -0.117088488142E+04   -0.19966E+02   -0.22594E+02  6150   0.987E+00    0.327E+01
RMM:   3    -0.117057641202E+04    0.30847E+00   -0.17264E+01  6226   0.288E+00    0.254E+01
RMM:   4    -0.116703581084E+04    0.35406E+01   -0.70472E+00  6155   0.206E+00    0.155E+01
RMM:   5    -0.116854771250E+04   -0.15119E+01   -0.61879E+00  6176   0.191E+00    0.135E+01
RMM:   6    -0.116823986524E+04    0.30785E+00   -0.26691E+00  6199   0.108E+00    0.689E+00
RMM:   7    -0.116750221198E+04    0.73765E+00   -0.94079E-01  6098   0.733E-01    0.368E+00
RMM:   8    -0.116738535627E+04    0.11686E+00   -0.41045E-01  6298   0.510E-01    0.171E+00
RMM:   9    -0.116736296572E+04    0.22391E-01   -0.56276E-02  6868   0.195E-01    0.111E+00
RMM:  10    -0.116735087293E+04    0.12093E-01   -0.43993E-02  6256   0.154E-01    0.499E-01
RMM:  11    -0.116735503856E+04   -0.41656E-02   -0.12172E-02  7072   0.905E-02    0.550E-01
RMM:  12    -0.116736160638E+04   -0.65678E-02   -0.53104E-03  7173   0.553E-02    0.882E-01
RMM:  13    -0.116735923153E+04    0.23749E-02   -0.13027E-03  6301   0.342E-02    0.919E-01
RMM:  14    -0.116735958497E+04   -0.35344E-03   -0.20780E-04  4297   0.119E-02    0.926E-01
RMM:  15    -0.116735544424E+04    0.41407E-02   -0.22104E-03  5529   0.427E-02    0.490E-01
RMM:  16    -0.116735623124E+04   -0.78700E-03   -0.31358E-03  5695   0.479E-02    0.373E-01
RMM:  17    -0.116735694974E+04   -0.71850E-03   -0.68189E-04  5221   0.260E-02    0.348E-01
RMM:  18    -0.116735774294E+04   -0.79319E-03   -0.72458E-04  5180   0.245E-02    0.186E-01
RMM:  19    -0.116735866818E+04   -0.92524E-03   -0.51903E-04  4650   0.215E-02    0.123E-01
RMM:  20    -0.116735971752E+04   -0.10493E-02   -0.47312E-04  4438   0.199E-02    0.170E-01
RMM:  21    -0.116736050434E+04   -0.78682E-03   -0.35403E-04  4251   0.161E-02    0.149E-01
RMM:  22    -0.116736180469E+04   -0.13004E-02   -0.88531E-04  4843   0.255E-02    0.125E-01
RMM:  23    -0.116736390832E+04   -0.21036E-02   -0.26324E-03  5375   0.457E-02    0.111E-01
RMM:  24    -0.116736468817E+04   -0.77985E-03   -0.95346E-04  4683   0.251E-02    0.693E-02
RMM:  25    -0.116736588357E+04   -0.11954E-02   -0.15011E-03  5147   0.333E-02    0.555E-02
RMM:  26    -0.116736698232E+04   -0.10988E-02   -0.24075E-03  5262   0.427E-02    0.642E-02
RMM:  27    -0.116736722335E+04   -0.24103E-03   -0.50595E-04  4251   0.158E-02    0.402E-02
RMM:  28    -0.116736752515E+04   -0.30181E-03   -0.73048E-04  4655   0.228E-02    0.560E-02
RMM:  29    -0.116736761724E+04   -0.92083E-04   -0.28413E-04  4078   0.133E-02
   3 F= -.11673676E+04 E0= -.11673576E+04  d E =-.625497E+01  mag=     1.8246
       N       E                     dE             d eps       ncg     rms          rms(c)
DAV:   1    -0.116689709922E+04    0.47043E+00   -0.77482E+02  6160   0.281E+01    0.123E+01
RMM:   2    -0.117045198363E+04   -0.35549E+01   -0.43077E+01  6144   0.650E+00    0.132E+01
RMM:   3    -0.117038333369E+04    0.68650E-01   -0.19272E+00  6187   0.141E+00    0.961E+00
RMM:   4    -0.117035982311E+04    0.23511E-01   -0.53361E-01  6128   0.641E-01    0.714E+00
RMM:   5    -0.117026558865E+04    0.94234E-01   -0.71707E-01  6144   0.754E-01    0.200E+00
RMM:   6    -0.117030929584E+04   -0.43707E-01   -0.87761E-02  6118   0.288E-01    0.210E+00
RMM:   7    -0.117029438490E+04    0.14911E-01   -0.62738E-02  6058   0.194E-01    0.145E+00
RMM:   8    -0.117029497956E+04   -0.59465E-03   -0.17888E-02  6057   0.102E-01    0.810E-01
RMM:   9    -0.117029322134E+04    0.17582E-02   -0.65314E-03  6016   0.709E-02    0.363E-01
RMM:  10    -0.117029494010E+04   -0.17188E-02   -0.36603E-03  5969   0.581E-02    0.418E-01
RMM:  11    -0.117029499649E+04   -0.56387E-04   -0.11277E-03  5472   0.327E-02    0.123E-01
RMM:  12    -0.117029523722E+04   -0.24074E-03   -0.46817E-04  5051   0.202E-02    0.775E-02
RMM:  13    -0.117029534779E+04   -0.11057E-03   -0.15486E-04  4087   0.127E-02    0.559E-02
RMM:  14    -0.117029542227E+04   -0.74485E-04   -0.81690E-05  3903   0.879E-03
   4 F= -.11702954E+04 E0= -.11702848E+04  d E =-.292781E+01  mag=     1.8970
       N       E                     dE             d eps       ncg     rms          rms(c)
DAV:   1    -0.117125947276E+04   -0.96412E+00   -0.11000E+02  6464   0.104E+01    0.470E+00
RMM:   2    -0.117150646598E+04   -0.24699E+00   -0.39209E+00  6144   0.206E+00    0.462E+00
RMM:   3    -0.117147803415E+04    0.28432E-01   -0.28305E-01  6163   0.543E-01    0.281E+00
RMM:   4    -0.117144384292E+04    0.34191E-01   -0.90559E-02  6151   0.256E-01    0.165E+00
RMM:   5    -0.117143201273E+04    0.11830E-01   -0.52014E-02  6101   0.208E-01    0.802E-01
RMM:   6    -0.117143455888E+04   -0.25462E-02   -0.12317E-02  6232   0.103E-01    0.544E-01
RMM:   7    -0.117143692675E+04   -0.23679E-02   -0.53516E-03  6094   0.675E-02    0.520E-01
RMM:   8    -0.117144091711E+04   -0.39904E-02   -0.49114E-03  6105   0.645E-02    0.608E-01
RMM:   9    -0.117144234766E+04   -0.14306E-02   -0.52615E-03  6005   0.639E-02    0.274E-01
RMM:  10    -0.117144439734E+04   -0.20497E-02   -0.20556E-03  5666   0.427E-02    0.283E-01
RMM:  11    -0.117144516387E+04   -0.76653E-03   -0.10134E-03  5331   0.314E-02    0.146E-01
RMM:  12    -0.117144625430E+04   -0.10904E-02   -0.76193E-04  5253   0.291E-02    0.133E-01
RMM:  13    -0.117144683005E+04   -0.57575E-03   -0.73525E-04  5257   0.266E-02    0.606E-02
RMM:  14    -0.117144700100E+04   -0.17095E-03   -0.13866E-04  4102   0.125E-02    0.508E-02
RMM:  15    -0.117144714575E+04   -0.14475E-03   -0.94718E-05  3900   0.974E-03    0.372E-02
RMM:  16    -0.117144725380E+04   -0.10805E-03   -0.11747E-04  4016   0.111E-02    0.205E-02
RMM:  17    -0.117144728060E+04   -0.26798E-04   -0.38263E-05  3476   0.572E-03
   5 F= -.11714473E+04 E0= -.11714346E+04  d E =-.115186E+01  mag=     1.9686
       N       E                     dE             d eps       ncg     rms          rms(c)
DAV:   1    -0.117215029355E+04   -0.70304E+00   -0.10869E+02  6224   0.982E+00    0.423E+00
RMM:   2    -0.117250584145E+04   -0.35555E+00   -0.33103E+00  6145   0.178E+00    0.274E+00
RMM:   3    -0.117252290502E+04   -0.17064E-01   -0.21302E-01  6342   0.446E-01    0.155E+00
RMM:   4    -0.117253566863E+04   -0.12764E-01   -0.65727E-02  6236   0.227E-01    0.859E-01
RMM:   5    -0.117254186936E+04   -0.62007E-02   -0.21114E-02  6537   0.130E-01    0.489E-01
RMM:   6    -0.117254398636E+04   -0.21170E-02   -0.56076E-03  6972   0.621E-02    0.291E-01
RMM:   7    -0.117254567432E+04   -0.16880E-02   -0.22258E-03  6264   0.446E-02    0.168E-01
RMM:   8    -0.117254623781E+04   -0.56349E-03   -0.88352E-04  5716   0.259E-02    0.113E-01
RMM:   9    -0.117254632969E+04   -0.91879E-04   -0.33959E-04  4835   0.164E-02
   6 F= -.11725463E+04 E0= -.11725379E+04  d E =-.109905E+01  mag=     1.9803
       N       E                     dE             d eps       ncg     rms          rms(c)
DAV:   1    -0.117307288964E+04   -0.52665E+00   -0.49181E+01  6480   0.653E+00    0.231E+00
RMM:   2    -0.117319182850E+04   -0.11894E+00   -0.13340E+00  6144   0.116E+00    0.192E+00
RMM:   3    -0.117318135333E+04    0.10475E-01   -0.62017E-02  6253   0.241E-01    0.107E+00
RMM:   4    -0.117317680203E+04    0.45513E-02   -0.25585E-02  6123   0.132E-01    0.661E-01
RMM:   5    -0.117317354634E+04    0.32557E-02   -0.70879E-03  6083   0.774E-02    0.168E-01
RMM:   6    -0.117317362384E+04   -0.77500E-04   -0.74200E-04  5564   0.230E-02    0.124E-01
RMM:   7    -0.117317365988E+04   -0.36043E-04   -0.20724E-04  4312   0.136E-02    0.798E-02
RMM:   8    -0.117317369794E+04   -0.38058E-04   -0.13982E-04  4160   0.117E-02
   7 F= -.11731737E+04 E0= -.11731662E+04  d E =-.627368E+00  mag=     1.9840
       N       E                     dE             d eps       ncg     rms          rms(c)
DAV:   1    -0.117367603422E+04   -0.50237E+00   -0.75738E+01  6352   0.768E+00    0.282E+00
RMM:   2    -0.117385506334E+04   -0.17903E+00   -0.20822E+00  6144   0.135E+00    0.210E+00
RMM:   3    -0.117384155544E+04    0.13508E-01   -0.10518E-01  6291   0.294E-01    0.109E+00
RMM:   4    -0.117383409949E+04    0.74559E-02   -0.35397E-02  6317   0.146E-01    0.588E-01
RMM:   5    -0.117383068065E+04    0.34188E-02   -0.73616E-03  6717   0.697E-02    0.191E-01
RMM:   6    -0.117383068288E+04   -0.22362E-05   -0.10827E-03  6406   0.266E-02    0.121E-01
RMM:   7    -0.117383074898E+04   -0.66102E-04   -0.38311E-04  5051   0.166E-02    0.469E-02
RMM:   8    -0.117383075736E+04   -0.83729E-05   -0.14101E-04  4151   0.102E-02
   8 F= -.11738308E+04 E0= -.11738246E+04  d E =-.657059E+00  mag=     1.9780
       N       E                     dE             d eps       ncg     rms          rms(c)
DAV:   1    -0.117408029755E+04   -0.24955E+00   -0.25833E+01  6384   0.482E+00    0.171E+00
RMM:   2    -0.117413729803E+04   -0.57000E-01   -0.68464E-01  6145   0.852E-01    0.119E+00
RMM:   3    -0.117413406798E+04    0.32301E-02   -0.38006E-02  6369   0.183E-01    0.624E-01
RMM:   4    -0.117413167532E+04    0.23927E-02   -0.10939E-02  6558   0.861E-02    0.342E-01
RMM:   5    -0.117413069124E+04    0.98408E-03   -0.27146E-03  6478   0.407E-02    0.117E-01
RMM:   6    -0.117413068052E+04    0.10717E-04   -0.44588E-04  5023   0.179E-02    0.667E-02
RMM:   7    -0.117413070060E+04   -0.20078E-04   -0.16046E-04  4071   0.108E-02    0.273E-02
RMM:   8    -0.117413070254E+04   -0.19410E-05   -0.77108E-05  3828   0.782E-03
   9 F= -.11741307E+04 E0= -.11741248E+04  d E =-.299945E+00  mag=     1.9733
       N       E                     dE             d eps       ncg     rms          rms(c)
DAV:   1    -0.117415173466E+04   -0.21034E-01   -0.12419E+02  6304   0.109E+01    0.405E+00
RMM:   2    -0.117453164634E+04   -0.37991E+00   -0.45222E+00  6144   0.227E+00    0.372E+00
RMM:   3    -0.117450145922E+04    0.30187E-01   -0.23651E-01  7041   0.481E-01    0.253E+00
RMM:   4    -0.117448719154E+04    0.14268E-01   -0.11552E-01  6475   0.289E-01    0.110E+00
RMM:   5    -0.117447809699E+04    0.90946E-02   -0.21899E-02  6980   0.126E-01    0.327E-01
RMM:   6    -0.117447774129E+04    0.35570E-03   -0.35864E-03  7878   0.505E-02    0.193E-01
RMM:   7    -0.117447775425E+04   -0.12962E-04   -0.12277E-03  7592   0.261E-02    0.116E-01
RMM:   8    -0.117447773098E+04    0.23279E-04   -0.48564E-04  6002   0.166E-02
  10 F= -.11744777E+04 E0= -.11744718E+04  d E =-.347028E+00  mag=     1.9695
       N       E                     dE             d eps       ncg     rms          rms(c)
DAV:   1    -0.117448264415E+04   -0.48899E-02   -0.44209E+00  6784   0.243E+00    0.670E-01
RMM:   2    -0.117449228276E+04   -0.96386E-02   -0.13738E-01  6144   0.455E-01    0.790E-01
RMM:   3    -0.117449136682E+04    0.91595E-03   -0.54978E-03  6976   0.934E-02    0.621E-01
RMM:   4    -0.117449119391E+04    0.17291E-03   -0.28037E-03  6252   0.477E-02    0.373E-01
RMM:   5    -0.117449048609E+04    0.70782E-03   -0.16000E-03  5759   0.358E-02    0.814E-02
RMM:   6    -0.117449044038E+04    0.45717E-04   -0.13007E-04  4104   0.119E-02    0.630E-02
RMM:   7    -0.117449042704E+04    0.13331E-04   -0.47832E-05  3626   0.808E-03    0.337E-02
RMM:   8    -0.117449043049E+04   -0.34448E-05   -0.73395E-05  3552   0.874E-03
  11 F= -.11744904E+04 E0= -.11744847E+04  d E =-.126995E-01  mag=     1.9663
       N       E                     dE             d eps       ncg     rms          rms(c)
DAV:   1    -0.117449155294E+04   -0.11259E-02   -0.82781E+00  6376   0.312E+00    0.973E-01
RMM:   2    -0.117451053491E+04   -0.18982E-01   -0.24904E-01  6144   0.577E-01    0.112E+00
RMM:   3    -0.117450895754E+04    0.15774E-02   -0.10985E-02  6837   0.116E-01    0.889E-01
RMM:   4    -0.117450874809E+04    0.20945E-03   -0.55628E-03  6030   0.659E-02    0.509E-01
RMM:   5    -0.117450729210E+04    0.14560E-02   -0.26673E-03  5713   0.433E-02    0.908E-02
RMM:   6    -0.117450721733E+04    0.74777E-04   -0.21189E-04  4274   0.154E-02    0.736E-02
RMM:   7    -0.117450718615E+04    0.31172E-04   -0.96259E-05  3727   0.960E-03    0.358E-02
RMM:   8    -0.117450718116E+04    0.49959E-05   -0.62566E-05  3579   0.790E-03
  12 F= -.11745072E+04 E0= -.11745016E+04  d E =-.167507E-01  mag=     1.9660
       N       E                     dE             d eps       ncg     rms          rms(c)
DAV:   1    -0.117450356007E+04    0.36261E-02   -0.11945E+01  6352   0.389E+00    0.111E+00
RMM:   2    -0.117453260165E+04   -0.29042E-01   -0.35794E-01  6144   0.717E-01    0.103E+00
RMM:   3    -0.117453073679E+04    0.18649E-02   -0.17123E-02  6807   0.153E-01    0.745E-01
RMM:   4    -0.117452976317E+04    0.97362E-03   -0.64133E-03  6562   0.745E-02    0.373E-01
RMM:   5    -0.117452906578E+04    0.69739E-03   -0.23002E-03  6438   0.410E-02    0.770E-02
RMM:   6    -0.117452901613E+04    0.49649E-04   -0.23481E-04  4346   0.154E-02    0.531E-02
RMM:   7    -0.117452901233E+04    0.37949E-05   -0.10748E-04  3722   0.102E-02    0.248E-02
RMM:   8    -0.117452901414E+04   -0.18072E-05   -0.51920E-05  3536   0.775E-03
  13 F= -.11745290E+04 E0= -.11745235E+04  d E =-.218330E-01  mag=     1.9608
       N       E                     dE             d eps       ncg     rms          rms(c)
DAV:   1    -0.117452676903E+04    0.22433E-02   -0.11649E+01  6392   0.394E+00    0.678E-01
RMM:   2    -0.117455245546E+04   -0.25686E-01   -0.28935E-01  6147   0.645E-01    0.460E-01
RMM:   3    -0.117455177925E+04    0.67621E-03   -0.11707E-02  6291   0.152E-01    0.307E-01
RMM:   4    -0.117455120420E+04    0.57505E-03   -0.38245E-03  7055   0.561E-02    0.150E-01
RMM:   5    -0.117455103305E+04    0.17116E-03   -0.86823E-04  6603   0.247E-02    0.408E-02
RMM:   6    -0.117455103642E+04   -0.33724E-05   -0.11951E-04  3978   0.106E-02    0.255E-02
RMM:   7    -0.117455104296E+04   -0.65371E-05   -0.93655E-05  3752   0.871E-03    0.106E-02
RMM:   8    -0.117455104498E+04   -0.20178E-05   -0.34823E-05  3574   0.654E-03
  14 F= -.11745510E+04 E0= -.11745457E+04  d E =-.220308E-01  mag=     1.9580
       N       E                     dE             d eps       ncg     rms          rms(c)
DAV:   1    -0.117454753340E+04    0.35096E-02   -0.77803E+00  6376   0.318E+00    0.592E-01
RMM:   2    -0.117456512038E+04   -0.17587E-01   -0.19895E-01  6144   0.533E-01    0.556E-01
RMM:   3    -0.117456461892E+04    0.50146E-03   -0.81457E-03  6474   0.121E-01    0.402E-01
RMM:   4    -0.117456432731E+04    0.29161E-03   -0.25942E-03  6686   0.460E-02    0.267E-01
RMM:   5    -0.117456393813E+04    0.38918E-03   -0.13188E-03  6067   0.305E-02    0.424E-02
RMM:   6    -0.117456391915E+04    0.18979E-04   -0.82011E-05  3839   0.105E-02    0.339E-02
RMM:   7    -0.117456391740E+04    0.17447E-05   -0.65410E-05  3630   0.776E-03    0.169E-02
RMM:   8    -0.117456391824E+04   -0.83279E-06   -0.44915E-05  3570   0.690E-03
  15 F= -.11745639E+04 E0= -.11745586E+04  d E =-.128733E-01  mag=     1.9579
       N       E                     dE             d eps       ncg     rms          rms(c)
DAV:   1    -0.117456279641E+04    0.11210E-02   -0.43752E+00  6384   0.241E+00    0.415E-01
RMM:   2    -0.117457258296E+04   -0.97866E-02   -0.10874E-01  6147   0.396E-01    0.318E-01
RMM:   3    -0.117457234415E+04    0.23881E-03   -0.46268E-03  6443   0.924E-02    0.219E-01
RMM:   4    -0.117457215449E+04    0.18966E-03   -0.12725E-03  6550   0.332E-02    0.138E-01
RMM:   5    -0.117457203562E+04    0.11887E-03   -0.52187E-04  5682   0.199E-02    0.241E-02
RMM:   6    -0.117457203172E+04    0.39087E-05   -0.40010E-05  3603   0.822E-03    0.178E-02
RMM:   7    -0.117457203435E+04   -0.26300E-05   -0.51251E-05  3493   0.658E-03    0.108E-02
RMM:   8    -0.117457203642E+04   -0.20772E-05   -0.31866E-05  3453   0.544E-03
  16 F= -.11745720E+04 E0= -.11745667E+04  d E =-.811819E-02  mag=     1.9570
       N       E                     dE             d eps       ncg     rms          rms(c)
DAV:   1    -0.117456925580E+04    0.27785E-02   -0.47525E+00  6384   0.251E+00    0.404E-01
RMM:   2    -0.117457971903E+04   -0.10463E-01   -0.11455E-01  6146   0.404E-01    0.259E-01
RMM:   3    -0.117457948411E+04    0.23492E-03   -0.46672E-03  6239   0.966E-02    0.170E-01
RMM:   4    -0.117457926242E+04    0.22169E-03   -0.14469E-03  6521   0.350E-02    0.786E-02
RMM:   5    -0.117457921419E+04    0.48222E-04   -0.27137E-04  4828   0.148E-02    0.220E-02
RMM:   6    -0.117457921742E+04   -0.32266E-05   -0.36059E-05  3584   0.827E-03    0.133E-02
RMM:   7    -0.117457922193E+04   -0.45077E-05   -0.56387E-05  3532   0.677E-03    0.799E-03
RMM:   8    -0.117457922389E+04   -0.19662E-05   -0.29590E-05  3344   0.530E-03
  17 F= -.11745792E+04 E0= -.11745739E+04  d E =-.718747E-02  mag=     1.9561
       N       E                     dE             d eps       ncg     rms          rms(c)
DAV:   1    -0.117457655229E+04    0.26696E-02   -0.39093E+00  6416   0.227E+00    0.367E-01
RMM:   2    -0.117458511792E+04   -0.85656E-02   -0.93981E-02  6147   0.366E-01    0.234E-01
RMM:   3    -0.117458491408E+04    0.20384E-03   -0.38548E-03  6235   0.877E-02    0.154E-01
RMM:   4    -0.117458472078E+04    0.19330E-03   -0.12100E-03  6323   0.322E-02    0.638E-02
RMM:   5    -0.117458469017E+04    0.30608E-04   -0.21106E-04  4365   0.134E-02    0.201E-02
RMM:   6    -0.117458469285E+04   -0.26839E-05   -0.34292E-05  3554   0.797E-03    0.121E-02
RMM:   7    -0.117458469688E+04   -0.40223E-05   -0.49290E-05  3473   0.657E-03    0.726E-03
RMM:   8    -0.117458469809E+04   -0.12118E-05   -0.18550E-05  3303   0.504E-03
  18 F= -.11745847E+04 E0= -.11745793E+04  d E =-.547419E-02  mag=     1.9555
       N       E                     dE             d eps       ncg     rms          rms(c)
DAV:   1    -0.117458337229E+04    0.13246E-02   -0.24060E+00  6560   0.179E+00    0.288E-01
RMM:   2    -0.117458866037E+04   -0.52881E-02   -0.58078E-02  6147   0.288E-01    0.182E-01
RMM:   3    -0.117458853125E+04    0.12912E-03   -0.23933E-03  6213   0.691E-02    0.120E-01
RMM:   4    -0.117458841169E+04    0.11956E-03   -0.75008E-04  6086   0.254E-02    0.475E-02
RMM:   5    -0.117458839456E+04    0.17129E-04   -0.12043E-04  3752   0.109E-02    0.165E-02
RMM:   6    -0.117458839855E+04   -0.39897E-05   -0.39132E-05  3488   0.681E-03    0.978E-03
RMM:   7    -0.117458840099E+04   -0.24387E-05   -0.29421E-05  3358   0.544E-03    0.646E-03
RMM:   8    -0.117458840231E+04   -0.13127E-05   -0.16130E-05  3228   0.427E-03
  19 F= -.11745884E+04 E0= -.11745830E+04  d E =-.370422E-02  mag=     1.9558
       N       E                     dE             d eps       ncg     rms          rms(c)
DAV:   1    -0.117458606001E+04    0.23410E-02   -0.25616E+00  6432   0.184E+00    0.294E-01
RMM:   2    -0.117459169961E+04   -0.56396E-02   -0.61641E-02  6146   0.297E-01    0.183E-01
RMM:   3    -0.117459156913E+04    0.13048E-03   -0.25031E-03  6163   0.712E-02    0.121E-01
RMM:   4    -0.117459143740E+04    0.13173E-03   -0.79792E-04  5979   0.263E-02    0.387E-02
RMM:   5    -0.117459142961E+04    0.77889E-05   -0.10558E-04  3644   0.104E-02    0.160E-02
RMM:   6    -0.117459143352E+04   -0.39119E-05   -0.39452E-05  3501   0.673E-03    0.962E-03
RMM:   7    -0.117459143582E+04   -0.22988E-05   -0.28938E-05  3352   0.542E-03    0.572E-03
RMM:   8    -0.117459143712E+04   -0.12991E-05   -0.16238E-05  3190   0.428E-03
  20 F= -.11745914E+04 E0= -.11745861E+04  d E =-.303481E-02  mag=     1.9547
       N       E                     dE             d eps       ncg     rms          rms(c)
DAV:   1    -0.117459116319E+04    0.27263E-03   -0.86220E-01  6464   0.107E+00    0.174E-01
RMM:   2    -0.117459305741E+04   -0.18942E-02   -0.20932E-02  6146   0.174E-01    0.110E-01
RMM:   3    -0.117459300423E+04    0.53179E-04   -0.85262E-04  5586   0.416E-02    0.735E-02
RMM:   4    -0.117459295986E+04    0.44372E-04   -0.26912E-04  4103   0.160E-02    0.329E-02
RMM:   5    -0.117459295349E+04    0.63679E-05   -0.54820E-05  3542   0.794E-03    0.106E-02
RMM:   6    -0.117459295556E+04   -0.20666E-05   -0.21281E-05  3413   0.490E-03    0.705E-03
RMM:   7    -0.117459295657E+04   -0.10078E-05   -0.11609E-05  3155   0.365E-03    0.396E-03
RMM:   8    -0.117459295724E+04   -0.67521E-06   -0.71908E-06  3014   0.301E-03
  21 F= -.11745930E+04 E0= -.11745876E+04  d E =-.152012E-02  mag=     1.9539
       N       E                     dE             d eps       ncg     rms          rms(c)
DAV:   1    -0.117459281873E+04    0.13784E-03   -0.61786E-01  6456   0.912E-01    0.148E-01
RMM:   2    -0.117459418633E+04   -0.13676E-02   -0.15079E-02  6146   0.148E-01    0.940E-02
RMM:   3    -0.117459414783E+04    0.38494E-04   -0.58495E-04  5004   0.353E-02    0.624E-02
RMM:   4    -0.117459411731E+04    0.30516E-04   -0.17793E-04  3657   0.139E-02    0.281E-02
RMM:   5    -0.117459411399E+04    0.33244E-05   -0.44784E-05  3502   0.709E-03    0.851E-03
RMM:   6    -0.117459411579E+04   -0.17980E-05   -0.17852E-05  3364   0.439E-03    0.587E-03
RMM:   7    -0.117459411666E+04   -0.87064E-06   -0.95865E-06  3107   0.339E-03    0.339E-03
RMM:   8    -0.117459411724E+04   -0.57631E-06   -0.55748E-06  2756   0.275E-03
  22 F= -.11745941E+04 E0= -.11745887E+04  d E =-.115999E-02  mag=     1.9538
       N       E                     dE             d eps       ncg     rms          rms(c)
DAV:   1    -0.117459293055E+04    0.11861E-02   -0.11308E+00  6464   0.123E+00    0.196E-01
RMM:   2    -0.117459542060E+04   -0.24901E-02   -0.27320E-02  6146   0.199E-01    0.121E-01
RMM:   3    -0.117459535975E+04    0.60846E-04   -0.10985E-03  5885   0.476E-02    0.795E-02
RMM:   4    -0.117459530227E+04    0.57476E-04   -0.34771E-04  4391   0.178E-02    0.279E-02
RMM:   5    -0.117459529824E+04    0.40321E-05   -0.53792E-05  3545   0.802E-03    0.107E-02
RMM:   6    -0.117459530073E+04   -0.24876E-05   -0.23043E-05  3417   0.508E-03    0.686E-03
RMM:   7    -0.117459530185E+04   -0.11200E-05   -0.13063E-05  3173   0.394E-03    0.347E-03
RMM:   8    -0.117459530260E+04   -0.74907E-06   -0.78229E-06  3011   0.315E-03
  23 F= -.11745953E+04 E0= -.11745899E+04  d E =-.118536E-02  mag=     1.9536
       N       E                     dE             d eps       ncg     rms          rms(c)
DAV:   1    -0.117459462911E+04    0.67274E-03   -0.69660E-01  6464   0.970E-01    0.155E-01
RMM:   2    -0.117459617468E+04   -0.15456E-02   -0.16978E-02  6146   0.157E-01    0.957E-02
RMM:   3    -0.117459613477E+04    0.39915E-04   -0.66217E-04  5176   0.375E-02    0.637E-02
RMM:   4    -0.117459609831E+04    0.36456E-04   -0.21237E-04  3762   0.148E-02    0.200E-02
RMM:   5    -0.117459609882E+04   -0.50380E-06   -0.41417E-05  3513   0.685E-03    0.828E-03
RMM:   6    -0.117459610063E+04   -0.18157E-05   -0.18195E-05  3365   0.442E-03    0.559E-03
RMM:   7    -0.117459610156E+04   -0.92688E-06   -0.10047E-05  3117   0.339E-03    0.308E-03
RMM:   8    -0.117459610216E+04   -0.59776E-06   -0.57969E-06  2885   0.284E-03
  24 F= -.11745961E+04 E0= -.11745907E+04  d E =-.799558E-03  mag=     1.9529
       N       E                     dE             d eps       ncg     rms          rms(c)
DAV:   1    -0.117459477496E+04    0.13266E-02   -0.93868E-01  6464   0.112E+00    0.180E-01
RMM:   2    -0.117459684985E+04   -0.20749E-02   -0.22783E-02  6146   0.182E-01    0.110E-01
RMM:   3    -0.117459679793E+04    0.51921E-04   -0.90293E-04  5658   0.434E-02    0.728E-02
RMM:   4    -0.117459674997E+04    0.47951E-04   -0.29528E-04  4153   0.166E-02    0.236E-02
RMM:   5    -0.117459674783E+04    0.21418E-05   -0.45783E-05  3528   0.735E-03    0.977E-03
RMM:   6    -0.117459674996E+04   -0.21227E-05   -0.19935E-05  3400   0.471E-03    0.633E-03
RMM:   7    -0.117459675096E+04   -0.10046E-05   -0.11111E-05  3152   0.365E-03    0.338E-03
RMM:   8    -0.117459675163E+04   -0.67140E-06   -0.65656E-06  2972   0.297E-03
  25 F= -.11745968E+04 E0= -.11745913E+04  d E =-.649475E-03  mag=     1.9525
       N       E                     dE             d eps       ncg     rms          rms(c)
DAV:   1    -0.117459641403E+04    0.33693E-03   -0.31030E-01  6448   0.648E-01    0.105E-01
RMM:   2    -0.117459710561E+04   -0.69158E-03   -0.76430E-03  6146   0.105E-01    0.650E-02
RMM:   3    -0.117459708328E+04    0.22323E-04   -0.26920E-04  3993   0.252E-02    0.435E-02
RMM:   4    -0.117459706755E+04    0.15732E-04   -0.10371E-04  3526   0.110E-02    0.137E-02
RMM:   5    -0.117459706865E+04   -0.11022E-05   -0.25392E-05  3407   0.562E-03    0.607E-03
RMM:   6    -0.117459706984E+04   -0.11827E-05   -0.11649E-05  3183   0.377E-03    0.409E-03
RMM:   7    -0.117459707042E+04   -0.58139E-06   -0.58512E-06  2602   0.296E-03    0.237E-03
RMM:   8    -0.117459707077E+04   -0.35559E-06   -0.31794E-06  2017   0.248E-03
  26 F= -.11745971E+04 E0= -.11745916E+04  d E =-.319141E-03  mag=     1.9522
       N       E                     dE             d eps       ncg     rms          rms(c)
DAV:   1    -0.117459667115E+04    0.39927E-03   -0.29879E-01  6336   0.636E-01    0.103E-01
RMM:   2    -0.117459733806E+04   -0.66692E-03   -0.73367E-03  6146   0.103E-01    0.635E-02
RMM:   3    -0.117459731752E+04    0.20544E-04   -0.25759E-04  3967   0.247E-02    0.423E-02
RMM:   4    -0.117459730324E+04    0.14277E-04   -0.96612E-05  3514   0.107E-02    0.143E-02
RMM:   5    -0.117459730410E+04   -0.85570E-06   -0.24200E-05  3397   0.550E-03    0.578E-03
RMM:   6    -0.117459730524E+04   -0.11384E-05   -0.10901E-05  3144   0.366E-03    0.399E-03
RMM:   7    -0.117459730580E+04   -0.56229E-06   -0.53802E-06  2481   0.289E-03    0.215E-03
RMM:   8    -0.117459730612E+04   -0.32232E-06   -0.27899E-06  1757   0.243E-03
  27 F= -.11745973E+04 E0= -.11745918E+04  d E =-.235347E-03  mag=     1.9522
       N       E                     dE             d eps       ncg     rms          rms(c)
DAV:   1    -0.117459683743E+04    0.46837E-03   -0.29421E-01  6336   0.630E-01    0.102E-01
RMM:   2    -0.117459749288E+04   -0.65545E-03   -0.72131E-03  6147   0.103E-01    0.629E-02
RMM:   3    -0.117459747225E+04    0.20635E-04   -0.25319E-04  3970   0.245E-02    0.419E-02
RMM:   4    -0.117459745771E+04    0.14533E-04   -0.95272E-05  3505   0.106E-02    0.129E-02
RMM:   5    -0.117459745891E+04   -0.11989E-05   -0.23334E-05  3381   0.539E-03    0.533E-03
RMM:   6    -0.117459746000E+04   -0.10852E-05   -0.10578E-05  3115   0.361E-03    0.358E-03
RMM:   7    -0.117459746053E+04   -0.53679E-06   -0.52276E-06  2452   0.285E-03    0.190E-03
RMM:   8    -0.117459746083E+04   -0.29898E-06   -0.27119E-06  1682   0.241E-03
  28 F= -.11745975E+04 E0= -.11745920E+04  d E =-.154713E-03  mag=     1.9521
       N       E                     dE             d eps       ncg     rms          rms(c)
DAV:   1    -0.117459744300E+04    0.17538E-04   -0.49523E-02  6352   0.261E-01    0.469E-02
RMM:   2    -0.117459755445E+04   -0.11146E-03   -0.12930E-03  6058   0.439E-02    0.303E-02
RMM:   3    -0.117459754866E+04    0.57939E-05   -0.41482E-05  3407   0.104E-02    0.196E-02
RMM:   4    -0.117459754624E+04    0.24141E-05   -0.20192E-05  3351   0.507E-03    0.881E-03
RMM:   5    -0.117459754595E+04    0.29658E-06   -0.46495E-06  2505   0.272E-03    0.315E-03
RMM:   6    -0.117459754608E+04   -0.13075E-06   -0.12497E-06  1414   0.206E-03    0.177E-03
RMM:   7    -0.117459754614E+04   -0.58673E-07   -0.26737E-07   861   0.193E-03    0.963E-04
RMM:   8    -0.117459754615E+04   -0.11685E-07   -0.14812E-08   696   0.189E-03
  29 F= -.11745975E+04 E0= -.11745920E+04  d E =-.853143E-04  mag=     1.9523
       N       E                     dE             d eps       ncg     rms          rms(c)
DAV:   1    -0.117459688532E+04    0.66081E-03   -0.34006E-01  6360   0.680E-01    0.111E-01
RMM:   2    -0.117459764434E+04   -0.75901E-03   -0.83808E-03  6147   0.111E-01    0.685E-02
RMM:   3    -0.117459762127E+04    0.23071E-04   -0.29266E-04  4007   0.264E-02    0.453E-02
RMM:   4    -0.117459760536E+04    0.15911E-04   -0.10566E-04  3504   0.112E-02    0.170E-02
RMM:   5    -0.117459760561E+04   -0.25316E-06   -0.26913E-05  3385   0.579E-03    0.598E-03
RMM:   6    -0.117459760680E+04   -0.11955E-05   -0.11619E-05  3155   0.378E-03    0.427E-03
RMM:   7    -0.117459760740E+04   -0.59673E-06   -0.58841E-06  2614   0.296E-03    0.232E-03
RMM:   8    -0.117459760773E+04   -0.33302E-06   -0.29040E-06  1795   0.245E-03
  30 F= -.11745976E+04 E0= -.11745921E+04  d E =-.615862E-04  mag=     1.9523
