       N       E                     dE             d eps       ncg     rms          rms(c)
DAV:   1     0.120067434557E+05    0.12007E+05   -0.42416E+05 12320   0.132E+03
DAV:   2     0.667541975245E+03   -0.11339E+05   -0.10131E+05 12296   0.377E+02
DAV:   3    -0.137486224141E+04   -0.20424E+04   -0.19692E+04 13216   0.166E+02
DAV:   4    -0.151084336888E+04   -0.13598E+03   -0.13369E+03 16256   0.448E+01
DAV:   5    -0.151931407401E+04   -0.84707E+01   -0.84356E+01 22104   0.103E+01    0.182E+02
RMM:   6    -0.117443247901E+04    0.34488E+03   -0.16189E+03 12510   0.350E+01    0.110E+02
RMM:   7    -0.115994764272E+04    0.14485E+02   -0.58337E+01 12811   0.109E+01    0.650E+01
RMM:   8    -0.116377207138E+04   -0.38244E+01   -0.19896E+01 13644   0.508E+00    0.301E+01
RMM:   9    -0.116740621638E+04   -0.36341E+01   -0.53937E+00 13004   0.276E+00    0.888E+00
RMM:  10    -0.116870394849E+04   -0.12977E+01   -0.15370E+00 14216   0.125E+00    0.609E+00
RMM:  11    -0.116992866385E+04   -0.12247E+01   -0.15320E+00 14442   0.968E-01    0.390E+00
RMM:  12    -0.117055840090E+04   -0.62974E+00   -0.63258E-01 13292   0.778E-01    0.194E+00
RMM:  13    -0.117069056732E+04   -0.13217E+00   -0.20628E-01 15329   0.428E-01    0.150E+00
RMM:  14    -0.117072612138E+04   -0.35554E-01   -0.81521E-02 14790   0.266E-01    0.138E+00
RMM:  15    -0.117074135635E+04   -0.15235E-01   -0.35269E-02 15890   0.169E-01    0.941E-01
RMM:  16    -0.117074180865E+04   -0.45230E-03   -0.47864E-03 16424   0.617E-02    0.983E-01
RMM:  17    -0.117073641392E+04    0.53947E-02   -0.85280E-03 13437   0.942E-02    0.816E-01
RMM:  18    -0.117073992250E+04   -0.35086E-02   -0.96643E-03 13434   0.903E-02    0.585E-01
RMM:  19    -0.117074024077E+04   -0.31827E-03   -0.55451E-03 13396   0.705E-02    0.466E-01
RMM:  20    -0.117074002978E+04    0.21099E-03   -0.27714E-03 12883   0.509E-02    0.465E-01
RMM:  21    -0.117073924962E+04    0.78015E-03   -0.25456E-03 12188   0.510E-02    0.487E-01
RMM:  22    -0.117073910595E+04    0.14367E-03   -0.39368E-04  9775   0.196E-02    0.485E-01
RMM:  23    -0.117073921659E+04   -0.11063E-03   -0.13317E-04  8518   0.114E-02    0.510E-01
RMM:  24    -0.117073964424E+04   -0.42765E-03   -0.33501E-04  9305   0.217E-02    0.589E-01
RMM:  25    -0.117073964511E+04   -0.87028E-06   -0.64901E-05  8133   0.939E-03
   1 F= -.11707396E+04 E0= -.11707331E+04  d E =-.117074E+04  mag=     5.9913
       N       E                     dE             d eps       ncg     rms          rms(c)
DAV:   1    -0.116562734809E+04    0.51123E+01   -0.81983E+02 13264   0.285E+01    0.144E+01
RMM:   2    -0.116975594159E+04   -0.41286E+01   -0.53283E+01 12308   0.634E+00    0.114E+01
RMM:   3    -0.116952176063E+04    0.23418E+00   -0.30216E+00 12684   0.208E+00    0.726E+00
RMM:   4    -0.116938693251E+04    0.13483E+00   -0.89395E-01 14399   0.714E-01    0.414E+00
RMM:   5    -0.116933643820E+04    0.50494E-01   -0.29189E-01 12913   0.423E-01    0.262E+00
RMM:   6    -0.116933608351E+04    0.35469E-03   -0.59291E-02 14331   0.206E-01    0.102E+00
RMM:   7    -0.116933228458E+04    0.37989E-02   -0.22042E-02 16116   0.114E-01    0.564E-01
RMM:   8    -0.116933362732E+04   -0.13427E-02   -0.59882E-03 15267   0.665E-02    0.244E-01
RMM:   9    -0.116933431156E+04   -0.68425E-03   -0.27019E-03 14645   0.423E-02    0.138E-01
RMM:  10    -0.116933455435E+04   -0.24279E-03   -0.98521E-04 12726   0.249E-02    0.817E-02
RMM:  11    -0.116933471051E+04   -0.15616E-03   -0.46472E-04 10241   0.171E-02    0.595E-02
RMM:  12    -0.116933483031E+04   -0.11980E-03   -0.25806E-04  9245   0.146E-02    0.363E-02
RMM:  13    -0.116933488718E+04   -0.56868E-04   -0.14385E-04  8507   0.111E-02
   2 F= -.11693349E+04 E0= -.11693312E+04  d E =0.140476E+01  mag=     5.9718
       N       E                     dE             d eps       ncg     rms          rms(c)
DAV:   1    -0.117067920733E+04   -0.13444E+01   -0.15402E+02 13280   0.113E+01    0.659E+00
RMM:   2    -0.117090901748E+04   -0.22981E+00   -0.53709E+00 12294   0.267E+00    0.578E+00
RMM:   3    -0.117085441251E+04    0.54605E-01   -0.31677E-01 13095   0.738E-01    0.374E+00
RMM:   4    -0.117080525727E+04    0.49155E-01   -0.29786E-01 12774   0.517E-01    0.214E+00
RMM:   5    -0.117079384550E+04    0.11412E-01   -0.73259E-02 12943   0.272E-01    0.999E-01
RMM:   6    -0.117078885505E+04    0.49904E-02   -0.14540E-02 14222   0.108E-01    0.531E-01
RMM:   7    -0.117078878553E+04    0.69524E-04   -0.39285E-03 14319   0.569E-02    0.416E-01
RMM:   8    -0.117078952166E+04   -0.73613E-03   -0.19440E-03 12821   0.454E-02    0.196E-01
RMM:   9    -0.117078978856E+04   -0.26690E-03   -0.78071E-04 11740   0.274E-02    0.849E-02
RMM:  10    -0.117078997103E+04   -0.18248E-03   -0.18669E-04  8976   0.161E-02    0.814E-02
RMM:  11    -0.117079010542E+04   -0.13439E-03   -0.13941E-04  8458   0.125E-02    0.819E-02
RMM:  12    -0.117079033486E+04   -0.22945E-03   -0.17673E-04  8446   0.161E-02    0.731E-02
RMM:  13    -0.117079050670E+04   -0.17183E-03   -0.24084E-04  8926   0.149E-02    0.694E-02
RMM:  14    -0.117079085485E+04   -0.34815E-03   -0.65878E-04 10591   0.269E-02    0.639E-02
RMM:  15    -0.117079107037E+04   -0.21552E-03   -0.39181E-04  9874   0.219E-02    0.729E-02
RMM:  16    -0.117079081576E+04    0.25461E-03   -0.24012E-04  8483   0.207E-02    0.644E-02
RMM:  17    -0.117079074671E+04    0.69052E-04   -0.72684E-05  7280   0.888E-03
   3 F= -.11707907E+04 E0= -.11707803E+04  d E =-.145586E+01  mag=     5.4465
       N       E                     dE             d eps       ncg     rms          rms(c)
DAV:   1    -0.117124113319E+04   -0.45032E+00   -0.62773E+01 12912   0.845E+00    0.321E+00
RMM:   2    -0.117138769321E+04   -0.14656E+00   -0.19457E+00 12300   0.161E+00    0.296E+00
RMM:   3    -0.117137211858E+04    0.15575E-01   -0.92165E-02 13209   0.410E-01    0.185E+00
RMM:   4    -0.117136731438E+04    0.48042E-02   -0.54327E-02 12907   0.228E-01    0.102E+00
RMM:   5    -0.117136019876E+04    0.71156E-02   -0.11487E-02 13032   0.120E-01    0.444E-01
RMM:   6    -0.117136037814E+04   -0.17937E-03   -0.26054E-03 13766   0.414E-02    0.205E-01
RMM:   7    -0.117136037283E+04    0.53064E-05   -0.41136E-04  9685   0.209E-02    0.130E-01
RMM:   8    -0.117136043930E+04   -0.66471E-04   -0.29596E-04  9151   0.193E-02
   4 F= -.11713604E+04 E0= -.11713527E+04  d E =-.569693E+00  mag=     5.1190
       N       E                     dE             d eps       ncg     rms          rms(c)
DAV:   1    -0.117154441702E+04   -0.18404E+00   -0.26473E+01 12976   0.538E+00    0.194E+00
RMM:   2    -0.117160244863E+04   -0.58032E-01   -0.75819E-01 12290   0.981E-01    0.185E+00
RMM:   3    -0.117159570979E+04    0.67388E-02   -0.39785E-02 13525   0.253E-01    0.120E+00
RMM:   4    -0.117159353854E+04    0.21712E-02   -0.19120E-02 13061   0.130E-01    0.597E-01
RMM:   5    -0.117159139909E+04    0.21395E-02   -0.43717E-03 12809   0.708E-02    0.242E-01
RMM:   6    -0.117159144319E+04   -0.44102E-04   -0.73639E-04 11795   0.242E-02    0.120E-01
RMM:   7    -0.117159152000E+04   -0.76812E-04   -0.23038E-04  8983   0.160E-02    0.841E-02
RMM:   8    -0.117159167065E+04   -0.15065E-03   -0.33039E-04  9001   0.185E-02    0.106E-01
RMM:   9    -0.117159170890E+04   -0.38247E-04   -0.75775E-05  7646   0.104E-02
   5 F= -.11715917E+04 E0= -.11715857E+04  d E =-.231270E+00  mag=     4.9839
       N       E                     dE             d eps       ncg     rms          rms(c)
DAV:   1    -0.117166762076E+04   -0.75950E-01   -0.14021E+01 12912   0.392E+00    0.119E+00
RMM:   2    -0.117169722536E+04   -0.29605E-01   -0.35920E-01 12292   0.670E-01    0.928E-01
RMM:   3    -0.117169590639E+04    0.13190E-02   -0.20282E-02 12769   0.199E-01    0.670E-01
RMM:   4    -0.117169563833E+04    0.26806E-03   -0.63200E-03 14216   0.800E-02    0.407E-01
RMM:   5    -0.117169720922E+04   -0.15709E-02   -0.41531E-03 12872   0.655E-02    0.476E-01
RMM:   6    -0.117169744315E+04   -0.23393E-03   -0.61679E-04 11029   0.230E-02    0.497E-01
RMM:   7    -0.117169495728E+04    0.24859E-02   -0.62958E-03 11631   0.809E-02    0.304E-01
RMM:   8    -0.117169387566E+04    0.10816E-02   -0.35778E-03 11462   0.588E-02    0.333E-01
RMM:   9    -0.117169376630E+04    0.10936E-03   -0.46804E-04  9408   0.203E-02    0.319E-01
RMM:  10    -0.117169357146E+04    0.19483E-03   -0.12516E-04  7683   0.130E-02    0.320E-01
RMM:  11    -0.117169308602E+04    0.48545E-03   -0.25666E-04  8404   0.167E-02    0.296E-01
RMM:  12    -0.117169187554E+04    0.12105E-02   -0.21695E-03 10857   0.485E-02    0.321E-01
RMM:  13    -0.117169279578E+04   -0.92024E-03   -0.64550E-04  9416   0.338E-02    0.289E-01
RMM:  14    -0.117169299449E+04   -0.19871E-03   -0.61591E-05  7173   0.112E-02    0.329E-01
RMM:  15    -0.117169357019E+04   -0.57570E-03   -0.34271E-04  8499   0.223E-02    0.360E-01
RMM:  16    -0.117169378214E+04   -0.21195E-03   -0.78006E-05  7049   0.101E-02    0.394E-01
RMM:  17    -0.117169391698E+04   -0.13483E-03   -0.79229E-05  7082   0.133E-02    0.410E-01
RMM:  18    -0.117169459616E+04   -0.67918E-03   -0.32035E-04  8362   0.189E-02    0.469E-01
RMM:  19    -0.117169445443E+04    0.14173E-03   -0.45072E-05  6694   0.110E-02    0.471E-01
RMM:  20    -0.117169310875E+04    0.13457E-02   -0.16371E-03 10554   0.436E-02    0.387E-01
RMM:  21    -0.117169282229E+04    0.28647E-03   -0.41080E-04  8827   0.213E-02    0.390E-01
RMM:  22    -0.117169330897E+04   -0.48668E-03   -0.20692E-04  7454   0.183E-02    0.380E-01
RMM:  23    -0.117169410607E+04   -0.79711E-03   -0.14477E-03 10490   0.403E-02    0.372E-01
RMM:  24    -0.117169472595E+04   -0.61988E-03   -0.90573E-04 10107   0.323E-02    0.426E-01
RMM:  25    -0.117169465639E+04    0.69560E-04   -0.66745E-05  7309   0.904E-03
   6 F= -.11716947E+04 E0= -.11716891E+04  d E =-.102947E+00  mag=     4.9558
       N       E                     dE             d eps       ncg     rms          rms(c)
DAV:   1    -0.117173233794E+04   -0.37612E-01   -0.79753E+00 12848   0.302E+00    0.865E-01
RMM:   2    -0.117175041446E+04   -0.18077E-01   -0.20133E-01 12288   0.511E-01    0.124E+00
RMM:   3    -0.117175150174E+04   -0.10873E-02   -0.11438E-02 12804   0.165E-01    0.101E+00
RMM:   4    -0.117175511557E+04   -0.36138E-02   -0.86628E-03 13213   0.975E-02    0.120E+00
RMM:   5    -0.117175144413E+04    0.36714E-02   -0.60598E-03 11550   0.790E-02    0.819E-01
RMM:   6    -0.117174974704E+04    0.16971E-02   -0.56150E-03 12201   0.695E-02    0.844E-01
RMM:   7    -0.117174663129E+04    0.31157E-02   -0.95891E-03 12471   0.968E-02    0.729E-01
RMM:   8    -0.117174522562E+04    0.14057E-02   -0.50362E-02 12828   0.229E-01    0.157E+00
RMM:   9    -0.117174711352E+04   -0.18879E-02   -0.38312E-03 11549   0.881E-02    0.108E+00
RMM:  10    -0.117174769079E+04   -0.57727E-03   -0.82745E-04 10302   0.272E-02    0.115E+00
RMM:  11    -0.117174885182E+04   -0.11610E-02   -0.24349E-04  8321   0.222E-02    0.120E+00
RMM:  12    -0.117174814455E+04    0.70727E-03   -0.25166E-04  8196   0.201E-02    0.116E+00
RMM:  13    -0.117174771145E+04    0.43310E-03   -0.70123E-05  7269   0.107E-02    0.112E+00
RMM:  14    -0.117174818859E+04   -0.47714E-03   -0.78125E-05  7190   0.121E-02    0.116E+00
RMM:  15    -0.117174848714E+04   -0.29855E-03   -0.41205E-04  8988   0.179E-02    0.121E+00
RMM:  16    -0.117174845493E+04    0.32207E-04   -0.88936E-05  7085   0.133E-02
   7 F= -.11717485E+04 E0= -.11717430E+04  d E =-.537985E-01  mag=     5.1030
       N       E                     dE             d eps       ncg     rms          rms(c)
DAV:   1    -0.117178076013E+04   -0.32273E-01   -0.13129E+01 12768   0.402E+00    0.180E+00
RMM:   2    -0.117178431984E+04   -0.35597E-02   -0.48685E-01 12293   0.863E-01    0.360E+00
RMM:   3    -0.117178785275E+04   -0.35329E-02   -0.38616E-02 13007   0.270E-01    0.124E+00
RMM:   4    -0.117178456920E+04    0.32836E-02   -0.17725E-02 13061   0.133E-01    0.592E-01
RMM:   5    -0.117178336404E+04    0.12052E-02   -0.66936E-03 12448   0.759E-02    0.380E-01
RMM:   6    -0.117178349374E+04   -0.12970E-03   -0.20027E-03 11523   0.471E-02    0.201E-01
RMM:   7    -0.117178367187E+04   -0.17813E-03   -0.24097E-04  8582   0.212E-02    0.109E-01
RMM:   8    -0.117178378676E+04   -0.11489E-03   -0.14524E-04  7990   0.149E-02    0.490E-02
RMM:   9    -0.117178383228E+04   -0.45520E-04   -0.59268E-05  7500   0.948E-03
   8 F= -.11717838E+04 E0= -.11717750E+04  d E =-.353774E-01  mag=     5.0259
       N       E                     dE             d eps       ncg     rms          rms(c)
DAV:   1    -0.117180925126E+04   -0.25464E-01   -0.91876E+00 12640   0.339E+00    0.946E-01
RMM:   2    -0.117182772447E+04   -0.18473E-01   -0.24294E-01 12300   0.598E-01    0.736E-01
RMM:   3    -0.117182690628E+04    0.81819E-03   -0.13675E-02 12833   0.185E-01    0.591E-01
RMM:   4    -0.117182615162E+04    0.75466E-03   -0.33857E-03 14951   0.598E-02    0.398E-01
RMM:   5    -0.117182584856E+04    0.30306E-03   -0.18038E-03 12547   0.415E-02    0.189E-01
RMM:   6    -0.117182598831E+04   -0.13975E-03   -0.12006E-03 10834   0.366E-02    0.215E-01
RMM:   7    -0.117182605858E+04   -0.70263E-04   -0.14787E-04  8261   0.154E-02    0.100E-01
RMM:   8    -0.117182618924E+04   -0.13067E-03   -0.20009E-04  8165   0.164E-02    0.861E-02
RMM:   9    -0.117182627806E+04   -0.88822E-04   -0.12193E-04  7625   0.121E-02
   9 F= -.11718263E+04 E0= -.11718186E+04  d E =-.424458E-01  mag=     4.9188
       N       E                     dE             d eps       ncg     rms          rms(c)
DAV:   1    -0.117182976029E+04   -0.35710E-02   -0.32494E+00 13088   0.205E+00    0.631E-01
RMM:   2    -0.117183812862E+04   -0.83683E-02   -0.94008E-02 12292   0.387E-01    0.546E-01
RMM:   3    -0.117183832088E+04   -0.19225E-03   -0.59057E-03 12852   0.116E-01    0.492E-01
RMM:   4    -0.117183832718E+04   -0.62966E-05   -0.92476E-04 11961   0.328E-02    0.422E-01
RMM:   5    -0.117183887176E+04   -0.54458E-03   -0.11944E-03 11376   0.401E-02    0.249E-01
RMM:   6    -0.117183966528E+04   -0.79352E-03   -0.25747E-03 10978   0.528E-02    0.342E-01
RMM:   7    -0.117183987093E+04   -0.20565E-03   -0.27037E-04  8493   0.188E-02    0.319E-01
RMM:   8    -0.117183867475E+04    0.11962E-02   -0.30747E-03 10705   0.581E-02    0.232E-01
RMM:   9    -0.117183708704E+04    0.15877E-02   -0.69784E-03 12207   0.833E-02    0.335E-01
RMM:  10    -0.117183815228E+04   -0.10652E-02   -0.83798E-04  9658   0.359E-02    0.293E-01
RMM:  11    -0.117183833736E+04   -0.18508E-03   -0.81256E-05  7240   0.115E-02    0.300E-01
RMM:  12    -0.117184019133E+04   -0.18540E-02   -0.41361E-03 11540   0.686E-02    0.420E-01
RMM:  13    -0.117183915290E+04    0.10384E-02   -0.42393E-04  8667   0.292E-02    0.301E-01
RMM:  14    -0.117183937896E+04   -0.22606E-03   -0.16455E-04  7646   0.171E-02    0.324E-01
RMM:  15    -0.117183943035E+04   -0.51390E-04   -0.38246E-05  6576   0.741E-03
  10 F= -.11718394E+04 E0= -.11718325E+04  d E =-.131523E-01  mag=     4.8664
       N       E                     dE             d eps       ncg     rms          rms(c)
DAV:   1    -0.117184156133E+04   -0.21824E-02   -0.96417E+00 12688   0.355E+00    0.931E-01
RMM:   2    -0.117187142402E+04   -0.29863E-01   -0.25430E-01 12318   0.624E-01    0.139E+00
RMM:   3    -0.117187390480E+04   -0.24808E-02   -0.14628E-02 12664   0.205E-01    0.145E+00
RMM:   4    -0.117187026718E+04    0.36376E-02   -0.12444E-02 13643   0.120E-01    0.117E+00
RMM:   5    -0.117186657436E+04    0.36928E-02   -0.65390E-03 12749   0.758E-02    0.114E+00
RMM:   6    -0.117186134373E+04    0.52306E-02   -0.23140E-02 12861   0.148E-01    0.105E+00
RMM:   7    -0.117186205464E+04   -0.71091E-03   -0.17123E-03 11802   0.396E-02    0.107E+00
RMM:   8    -0.117186260339E+04   -0.54875E-03   -0.27925E-04  8322   0.187E-02    0.107E+00
RMM:   9    -0.117186936439E+04   -0.67610E-02   -0.26042E-03 11301   0.551E-02    0.190E+00
RMM:  10    -0.117185748485E+04    0.11880E-01   -0.26234E-03 11151   0.654E-02    0.913E-01
RMM:  11    -0.117185328713E+04    0.41977E-02   -0.13095E-02 12280   0.121E-01    0.129E+00
RMM:  12    -0.117184991570E+04    0.33714E-02   -0.14474E-03 10646   0.505E-02    0.127E+00
RMM:  13    -0.117184993984E+04   -0.24140E-04   -0.55331E-04  9690   0.277E-02
  11 F= -.11718499E+04 E0= -.11718386E+04  d E =-.105095E-01  mag=     4.9675
       N       E                     dE             d eps       ncg     rms          rms(c)
DAV:   1    -0.117185951484E+04   -0.95991E-02   -0.35907E+00 12896   0.218E+00    0.165E+00
RMM:   2    -0.117187001186E+04   -0.10497E-01   -0.27219E-01 12338   0.600E-01    0.390E+00
RMM:   3    -0.117186798869E+04    0.20232E-02   -0.23565E-02 13007   0.200E-01    0.146E+00
RMM:   4    -0.117186453953E+04    0.34492E-02   -0.15780E-02 12405   0.117E-01    0.461E-01
RMM:   5    -0.117186589813E+04   -0.13586E-02   -0.38968E-03 11662   0.615E-02    0.231E-01
RMM:   6    -0.117186781797E+04   -0.19198E-02   -0.13629E-03 11006   0.459E-02    0.213E-01
RMM:   7    -0.117186911439E+04   -0.12964E-02   -0.96134E-04 10594   0.364E-02    0.202E-01
RMM:   8    -0.117187100670E+04   -0.18923E-02   -0.16182E-03 10881   0.466E-02    0.196E-01
RMM:   9    -0.117187193096E+04   -0.92426E-03   -0.96678E-04 10347   0.342E-02    0.228E-01
RMM:  10    -0.117187076135E+04    0.11696E-02   -0.92395E-04 10127   0.359E-02    0.199E-01
RMM:  11    -0.117186949900E+04    0.12623E-02   -0.23763E-03 10978   0.496E-02    0.311E-01
RMM:  12    -0.117187188024E+04   -0.23812E-02   -0.45983E-03 11580   0.760E-02    0.191E-01
RMM:  13    -0.117187391699E+04   -0.20367E-02   -0.38089E-03 11881   0.688E-02    0.310E-01
RMM:  14    -0.117187307179E+04    0.84520E-03   -0.39158E-04  8588   0.238E-02    0.242E-01
RMM:  15    -0.117187177199E+04    0.12998E-02   -0.19967E-03 10710   0.469E-02    0.257E-01
RMM:  16    -0.117187064390E+04    0.11281E-02   -0.24832E-03 11216   0.525E-02    0.360E-01
RMM:  17    -0.117187019478E+04    0.44912E-03   -0.86213E-04 10252   0.302E-02    0.439E-01
RMM:  18    -0.117187084004E+04   -0.64526E-03   -0.81201E-04  9798   0.318E-02    0.326E-01
RMM:  19    -0.117187141195E+04   -0.57191E-03   -0.90390E-04 10397   0.300E-02    0.265E-01
RMM:  20    -0.117187233700E+04   -0.92505E-03   -0.18457E-03 10761   0.440E-02    0.233E-01
RMM:  21    -0.117187188836E+04    0.44864E-03   -0.18250E-04  7560   0.173E-02    0.233E-01
RMM:  22    -0.117187181355E+04    0.74813E-04   -0.20046E-05  6360   0.530E-03
  12 F= -.11718718E+04 E0= -.11718635E+04  d E =-.218737E-01  mag=     4.6624
       N       E                     dE             d eps       ncg     rms          rms(c)
DAV:   1    -0.117186606064E+04    0.58277E-02   -0.92568E+00 12552   0.349E+00    0.818E-01
RMM:   2    -0.117189115249E+04   -0.25092E-01   -0.22580E-01 12344   0.588E-01    0.781E-01
RMM:   3    -0.117189365741E+04   -0.25049E-02   -0.16900E-02 12365   0.222E-01    0.929E-01
RMM:   4    -0.117189276828E+04    0.88912E-03   -0.29050E-03 15556   0.619E-02    0.931E-01
RMM:   5    -0.117189031335E+04    0.24549E-02   -0.70555E-03 12368   0.807E-02    0.698E-01
RMM:   6    -0.117188673204E+04    0.35813E-02   -0.20222E-02 12773   0.137E-01    0.625E-01
RMM:   7    -0.117188575912E+04    0.97292E-03   -0.62732E-03 12657   0.792E-02    0.799E-01
RMM:   8    -0.117188834014E+04   -0.25810E-02   -0.35699E-03 11197   0.696E-02    0.808E-01
RMM:   9    -0.117188928960E+04   -0.94946E-03   -0.36721E-04  8634   0.239E-02    0.905E-01
RMM:  10    -0.117188931520E+04   -0.25599E-04   -0.38789E-03 11086   0.663E-02    0.935E-01
RMM:  11    -0.117189316529E+04   -0.38501E-02   -0.41851E-03 11386   0.715E-02    0.129E+00
RMM:  12    -0.117188460174E+04    0.85636E-02   -0.14940E-02 12187   0.134E-01    0.811E-01
RMM:  13    -0.117188403200E+04    0.56974E-03   -0.92119E-04 10438   0.418E-02    0.693E-01
RMM:  14    -0.117188301406E+04    0.10179E-02   -0.32022E-04  9045   0.243E-02    0.670E-01
RMM:  15    -0.117188103860E+04    0.19755E-02   -0.32602E-04  9114   0.222E-02    0.629E-01
RMM:  16    -0.117188033169E+04    0.70691E-03   -0.14921E-04  7845   0.155E-02    0.647E-01
RMM:  17    -0.117188029799E+04    0.33704E-04   -0.35693E-05  6949   0.834E-03
  13 F= -.11718803E+04 E0= -.11718705E+04  d E =-.848444E-02  mag=     4.6245
       N       E                     dE             d eps       ncg     rms          rms(c)
DAV:   1    -0.117188019528E+04    0.13641E-03   -0.31147E+00 12680   0.203E+00    0.758E-01
RMM:   2    -0.117188757913E+04   -0.73838E-02   -0.10956E-01 12342   0.410E-01    0.157E+00
RMM:   3    -0.117188807529E+04   -0.49616E-03   -0.70484E-03 12874   0.126E-01    0.636E-01
RMM:   4    -0.117188808424E+04   -0.89434E-05   -0.28943E-03 12124   0.567E-02    0.258E-01
RMM:   5    -0.117188904994E+04   -0.96571E-03   -0.12514E-03 11415   0.398E-02    0.207E-01
RMM:   6    -0.117189009308E+04   -0.10431E-02   -0.13963E-03 10981   0.428E-02    0.183E-01
RMM:   7    -0.117189063642E+04   -0.54335E-03   -0.61271E-04 10099   0.285E-02    0.165E-01
RMM:   8    -0.117189173002E+04   -0.10936E-02   -0.17914E-03 10879   0.476E-02    0.165E-01
RMM:   9    -0.117189200061E+04   -0.27060E-03   -0.41604E-04  9161   0.217E-02    0.174E-01
RMM:  10    -0.117189121271E+04    0.78791E-03   -0.10645E-03 10157   0.380E-02    0.133E-01
RMM:  11    -0.117189060692E+04    0.60579E-03   -0.12377E-03 10472   0.357E-02    0.181E-01
RMM:  12    -0.117189014099E+04    0.46593E-03   -0.67106E-04  9717   0.276E-02    0.221E-01
RMM:  13    -0.117189161550E+04   -0.14745E-02   -0.23334E-03 10772   0.576E-02    0.212E-01
RMM:  14    -0.117189202540E+04   -0.40990E-03   -0.40350E-04  8776   0.225E-02    0.243E-01
RMM:  15    -0.117189200970E+04    0.15703E-04   -0.44567E-05  7101   0.970E-03
  14 F= -.11718920E+04 E0= -.11718845E+04  d E =-.117117E-01  mag=     4.3008
       N       E                     dE             d eps       ncg     rms          rms(c)
DAV:   1    -0.117188801275E+04    0.40126E-02   -0.45128E+00 12624   0.244E+00    0.588E-01
RMM:   2    -0.117190010957E+04   -0.12097E-01   -0.11310E-01 12345   0.417E-01    0.712E-01
RMM:   3    -0.117190098075E+04   -0.87118E-03   -0.58416E-03 12619   0.137E-01    0.493E-01
RMM:   4    -0.117190217670E+04   -0.11960E-02   -0.24170E-03 13405   0.545E-02    0.537E-01
RMM:   5    -0.117190190557E+04    0.27113E-03   -0.26182E-04  8974   0.180E-02    0.494E-01
RMM:   6    -0.117190072707E+04    0.11785E-02   -0.24029E-03 11143   0.481E-02    0.541E-01
RMM:   7    -0.117190024473E+04    0.48234E-03   -0.71807E-04 10029   0.265E-02    0.559E-01
RMM:   8    -0.117189826551E+04    0.19792E-02   -0.54468E-03 11937   0.749E-02    0.529E-01
RMM:   9    -0.117189808001E+04    0.18550E-03   -0.76737E-04 10244   0.283E-02    0.568E-01
RMM:  10    -0.117189916578E+04   -0.10858E-02   -0.27367E-04  8828   0.205E-02    0.681E-01
RMM:  11    -0.117189800382E+04    0.11620E-02   -0.12954E-03 10664   0.514E-02    0.509E-01
RMM:  12    -0.117189856264E+04   -0.55882E-03   -0.25582E-03 11182   0.531E-02    0.443E-01
RMM:  13    -0.117189792019E+04    0.64246E-03   -0.20664E-03 10621   0.492E-02    0.559E-01
RMM:  14    -0.117190174801E+04   -0.38278E-02   -0.59289E-03 11687   0.856E-02    0.852E-01
RMM:  15    -0.117189755999E+04    0.41880E-02   -0.78892E-03 11904   0.973E-02    0.565E-01
RMM:  16    -0.117189730168E+04    0.25831E-03   -0.61337E-04  9944   0.337E-02    0.423E-01
RMM:  17    -0.117189655385E+04    0.74783E-03   -0.24694E-04  8602   0.201E-02    0.322E-01
RMM:  18    -0.117189521988E+04    0.13340E-02   -0.14669E-03 10577   0.398E-02    0.370E-01
RMM:  19    -0.117189484587E+04    0.37401E-03   -0.29696E-04  8556   0.192E-02    0.386E-01
RMM:  20    -0.117189498968E+04   -0.14381E-03   -0.69179E-05  7207   0.936E-03    0.423E-01
RMM:  21    -0.117189477092E+04    0.21876E-03   -0.12873E-04  7527   0.125E-02    0.457E-01
RMM:  22    -0.117189457856E+04    0.19236E-03   -0.44207E-05  6674   0.943E-03    0.407E-01
RMM:  23    -0.117189398711E+04    0.59145E-03   -0.11111E-04  7529   0.140E-02    0.386E-01
RMM:  24    -0.117189328666E+04    0.70045E-03   -0.24431E-04  8699   0.163E-02    0.385E-01
RMM:  25    -0.117189342403E+04   -0.13736E-03   -0.65816E-05  6969   0.110E-02    0.343E-01
RMM:  26    -0.117189285781E+04    0.56621E-03   -0.21683E-04  8599   0.194E-02    0.339E-01
RMM:  27    -0.117189239351E+04    0.46430E-03   -0.53355E-04 10206   0.260E-02    0.228E-01
RMM:  28    -0.117189210790E+04    0.28561E-03   -0.73087E-04 10449   0.335E-02    0.412E-01
RMM:  29    -0.117189212709E+04   -0.19186E-04   -0.73413E-05  7379   0.105E-02
  15 F= -.11718921E+04 E0= -.11718827E+04  d E =-.117390E-03  mag=     4.0303
       N       E                     dE             d eps       ncg     rms          rms(c)
DAV:   1    -0.117189116093E+04    0.94697E-03   -0.21545E+00 12768   0.169E+00    0.537E-01
RMM:   2    -0.117189601970E+04   -0.48588E-02   -0.66433E-02 12341   0.319E-01    0.108E+00
RMM:   3    -0.117189620192E+04   -0.18222E-03   -0.37962E-03 12354   0.102E-01    0.476E-01
RMM:   4    -0.117189598477E+04    0.21715E-03   -0.16251E-03 11930   0.417E-02    0.202E-01
RMM:   5    -0.117189627230E+04   -0.28753E-03   -0.48845E-04 10368   0.250E-02    0.234E-01
RMM:   6    -0.117189661690E+04   -0.34460E-03   -0.18525E-04  7967   0.176E-02    0.276E-01
RMM:   7    -0.117189581587E+04    0.80103E-03   -0.14602E-03 10436   0.432E-02    0.124E-01
RMM:   8    -0.117189572824E+04    0.87636E-04   -0.34531E-04  8710   0.198E-02
  16 F= -.11718957E+04 E0= -.11718866E+04  d E =-.360115E-02  mag=     4.0180
       N       E                     dE             d eps       ncg     rms          rms(c)
DAV:   1    -0.117189326787E+04    0.25480E-02   -0.23118E+00 12760   0.174E+00    0.365E-01
RMM:   2    -0.117189878447E+04   -0.55166E-02   -0.55449E-02 12331   0.288E-01    0.238E-01
RMM:   3    -0.117189886623E+04   -0.81764E-04   -0.27636E-03 12184   0.957E-02    0.142E-01
RMM:   4    -0.117189878665E+04    0.79586E-04   -0.67454E-04 12038   0.272E-02    0.107E-01
RMM:   5    -0.117189877123E+04    0.15417E-04   -0.20423E-04  7847   0.178E-02    0.417E-02
RMM:   6    -0.117189880410E+04   -0.32866E-04   -0.70538E-05  7184   0.115E-02    0.334E-02
RMM:   7    -0.117189882275E+04   -0.18652E-04   -0.32330E-05  6916   0.813E-03    0.330E-02
RMM:   8    -0.117189880452E+04    0.18229E-04   -0.21041E-05  6749   0.682E-03
  17 F= -.11718988E+04 E0= -.11718898E+04  d E =-.307628E-02  mag=     4.0148
       N       E                     dE             d eps       ncg     rms          rms(c)
DAV:   1    -0.117189243728E+04    0.63855E-02   -0.41856E+00 12560   0.235E+00    0.447E-01
RMM:   2    -0.117190217431E+04   -0.97370E-02   -0.99330E-02 12338   0.386E-01    0.273E-01
RMM:   3    -0.117190228051E+04   -0.10620E-03   -0.49134E-03 12213   0.129E-01    0.177E-01
RMM:   4    -0.117190218040E+04    0.10011E-03   -0.12161E-03 14031   0.367E-02    0.108E-01
RMM:   5    -0.117190227612E+04   -0.95727E-04   -0.39764E-04 10119   0.219E-02    0.980E-02
RMM:   6    -0.117190235597E+04   -0.79849E-04   -0.14846E-04  7496   0.158E-02    0.790E-02
RMM:   7    -0.117190242176E+04   -0.65787E-04   -0.59618E-05  7130   0.103E-02    0.637E-02
RMM:   8    -0.117190239083E+04    0.30930E-04   -0.32688E-05  6911   0.798E-03
  18 F= -.11719024E+04 E0= -.11718937E+04  d E =-.358631E-02  mag=     4.0134
       N       E                     dE             d eps       ncg     rms          rms(c)
DAV:   1    -0.117190043433E+04    0.19874E-02   -0.16462E+00 12752   0.148E+00    0.296E-01
RMM:   2    -0.117190452339E+04   -0.40891E-02   -0.39388E-02 12362   0.243E-01    0.187E-01
RMM:   3    -0.117190480733E+04   -0.28394E-03   -0.19939E-03 12125   0.805E-02    0.141E-01
RMM:   4    -0.117190520714E+04   -0.39981E-03   -0.56699E-04 11552   0.276E-02    0.112E-01
RMM:   5    -0.117190576497E+04   -0.55783E-03   -0.33803E-04  9257   0.235E-02    0.114E-01
RMM:   6    -0.117190593411E+04   -0.16915E-03   -0.83204E-05  7291   0.126E-02    0.925E-02
RMM:   7    -0.117190639950E+04   -0.46539E-03   -0.15108E-04  7992   0.158E-02    0.102E-01
RMM:   8    -0.117190657028E+04   -0.17078E-03   -0.71781E-05  7089   0.911E-03    0.980E-02
RMM:   9    -0.117190730249E+04   -0.73220E-03   -0.50146E-04  9691   0.268E-02    0.125E-01
RMM:  10    -0.117190796035E+04   -0.65786E-03   -0.95651E-04 10452   0.319E-02    0.157E-01
RMM:  11    -0.117190855595E+04   -0.59560E-03   -0.15580E-03 10757   0.414E-02    0.155E-01
RMM:  12    -0.117190858560E+04   -0.29648E-04   -0.12879E-04  7826   0.122E-02
  19 F= -.11719086E+04 E0= -.11719013E+04  d E =-.619477E-02  mag=     4.0157
       N       E                     dE             d eps       ncg     rms          rms(c)
DAV:   1    -0.117190833231E+04    0.22364E-03   -0.74964E-01 12912   0.992E-01    0.275E-01
RMM:   2    -0.117191079720E+04   -0.24649E-02   -0.18031E-02 12345   0.167E-01    0.243E-01
RMM:   3    -0.117191115685E+04   -0.35965E-03   -0.15672E-03 11426   0.641E-02    0.295E-01
RMM:   4    -0.117191108438E+04    0.72475E-04   -0.17804E-04  7729   0.169E-02    0.283E-01
RMM:   5    -0.117191097523E+04    0.10915E-03   -0.51426E-05  7042   0.102E-02    0.330E-01
RMM:   6    -0.117191200329E+04   -0.10281E-02   -0.16395E-03 10572   0.419E-02    0.321E-01
RMM:   7    -0.117191316781E+04   -0.11645E-02   -0.12665E-03 10609   0.356E-02    0.361E-01
RMM:   8    -0.117191201496E+04    0.11528E-02   -0.16706E-03 10110   0.420E-02    0.250E-01
RMM:   9    -0.117191122336E+04    0.79160E-03   -0.19331E-03 10764   0.424E-02    0.287E-01
RMM:  10    -0.117191052187E+04    0.70149E-03   -0.13510E-03 10578   0.388E-02    0.275E-01
RMM:  11    -0.117191043540E+04    0.86467E-04   -0.16579E-04  7862   0.144E-02
  20 F= -.11719104E+04 E0= -.11719036E+04  d E =-.184980E-02  mag=     4.0166
       N       E                     dE             d eps       ncg     rms          rms(c)
DAV:   1    -0.117191078824E+04   -0.26637E-03   -0.44161E-02 12680   0.245E-01    0.231E-01
RMM:   2    -0.117191131873E+04   -0.53049E-03   -0.46990E-03 12099   0.769E-02    0.487E-01
RMM:   3    -0.117191139985E+04   -0.81114E-04   -0.17145E-04  8022   0.207E-02    0.349E-01
RMM:   4    -0.117191190373E+04   -0.50388E-03   -0.23717E-04  8420   0.181E-02    0.284E-01
RMM:   5    -0.117191171922E+04    0.18451E-03   -0.51984E-05  6781   0.113E-02    0.269E-01
RMM:   6    -0.117191104024E+04    0.67898E-03   -0.20969E-03 10569   0.437E-02    0.250E-01
RMM:   7    -0.117191158195E+04   -0.54171E-03   -0.33872E-04  8106   0.232E-02    0.242E-01
RMM:   8    -0.117191278947E+04   -0.12075E-02   -0.13506E-03 10511   0.384E-02    0.299E-01
RMM:   9    -0.117191070392E+04    0.20856E-02   -0.52008E-03 11605   0.783E-02    0.263E-01
RMM:  10    -0.117191048035E+04    0.22357E-03   -0.61407E-04  9633   0.283E-02    0.276E-01
RMM:  11    -0.117191055286E+04   -0.72513E-04   -0.80610E-05  7342   0.104E-02
  21 F= -.11719106E+04 E0= -.11719038E+04  d E =-.117456E-03  mag=     4.0161
       N       E                     dE             d eps       ncg     rms          rms(c)
DAV:   1    -0.117191071620E+04   -0.23585E-03   -0.33297E-01 12560   0.662E-01    0.304E-01
RMM:   2    -0.117191163155E+04   -0.91535E-03   -0.12989E-02 12320   0.141E-01    0.596E-01
RMM:   3    -0.117191177556E+04   -0.14402E-03   -0.64207E-04 10399   0.395E-02    0.368E-01
RMM:   4    -0.117191205502E+04   -0.27946E-03   -0.25307E-04  8042   0.212E-02    0.222E-01
RMM:   5    -0.117191286068E+04   -0.80566E-03   -0.10009E-03 10521   0.343E-02    0.245E-01
RMM:   6    -0.117191256446E+04    0.29622E-03   -0.13764E-04  7335   0.157E-02    0.212E-01
RMM:   7    -0.117191200991E+04    0.55455E-03   -0.95849E-04 10171   0.306E-02    0.240E-01
RMM:   8    -0.117191276768E+04   -0.75777E-03   -0.75933E-04  9690   0.321E-02    0.233E-01
RMM:   9    -0.117191174779E+04    0.10199E-02   -0.15539E-03 10327   0.448E-02    0.237E-01
RMM:  10    -0.117191055453E+04    0.11933E-02   -0.35301E-03 11668   0.629E-02    0.364E-01
RMM:  11    -0.117191101564E+04   -0.46111E-03   -0.14102E-03 10887   0.349E-02    0.473E-01
RMM:  12    -0.117191099624E+04    0.19404E-04   -0.91060E-05  7637   0.113E-02
  22 F= -.11719110E+04 E0= -.11719044E+04  d E =-.443376E-03  mag=     4.0139
       N       E                     dE             d eps       ncg     rms          rms(c)
DAV:   1    -0.117191110085E+04   -0.85212E-04   -0.33506E-01 12704   0.673E-01    0.453E-01
RMM:   2    -0.117191124395E+04   -0.14310E-03   -0.19678E-02 12340   0.167E-01    0.866E-01
RMM:   3    -0.117191150309E+04   -0.25914E-03   -0.10833E-03 11010   0.469E-02    0.496E-01
RMM:   4    -0.117191166187E+04   -0.15878E-03   -0.77955E-04  9129   0.311E-02    0.257E-01
RMM:   5    -0.117191213858E+04   -0.47671E-03   -0.40877E-04  9579   0.238E-02    0.152E-01
RMM:   6    -0.117191252686E+04   -0.38828E-03   -0.54105E-04  9769   0.256E-02    0.141E-01
RMM:   7    -0.117191276252E+04   -0.23566E-03   -0.23217E-04  8130   0.165E-02    0.147E-01
RMM:   8    -0.117191197376E+04    0.78876E-03   -0.14370E-03 10347   0.441E-02    0.138E-01
RMM:   9    -0.117191134610E+04    0.62766E-03   -0.13553E-03 10558   0.376E-02    0.188E-01
RMM:  10    -0.117191307742E+04   -0.17313E-02   -0.51223E-03 11673   0.805E-02    0.213E-01
RMM:  11    -0.117191318522E+04   -0.10780E-03   -0.26365E-04  8397   0.199E-02    0.216E-01
RMM:  12    -0.117191342354E+04   -0.23832E-03   -0.12880E-04  7542   0.129E-02    0.254E-01
RMM:  13    -0.117191284044E+04    0.58309E-03   -0.30699E-04  8232   0.225E-02    0.182E-01
RMM:  14    -0.117191332353E+04   -0.48309E-03   -0.16833E-04  7400   0.180E-02    0.283E-01
RMM:  15    -0.117191280522E+04    0.51831E-03   -0.85823E-04  9993   0.327E-02    0.410E-01
RMM:  16    -0.117191290045E+04   -0.95239E-04   -0.47418E-05  6758   0.103E-02
  23 F= -.11719129E+04 E0= -.11719064E+04  d E =-.190422E-02  mag=     4.0233
       N       E                     dE             d eps       ncg     rms          rms(c)
DAV:   1    -0.117191223734E+04    0.56787E-03   -0.85295E-01 12624   0.106E+00    0.368E-01
RMM:   2    -0.117191468992E+04   -0.24526E-02   -0.23724E-02 12342   0.192E-01    0.530E-01
RMM:   3    -0.117191484296E+04   -0.15305E-03   -0.11849E-03 11785   0.606E-02    0.431E-01
RMM:   4    -0.117191536429E+04   -0.52133E-03   -0.50754E-04 10006   0.261E-02    0.388E-01
RMM:   5    -0.117191571309E+04   -0.34879E-03   -0.39374E-04  8762   0.218E-02    0.437E-01
RMM:   6    -0.117191463390E+04    0.10792E-02   -0.23715E-03 10620   0.523E-02    0.335E-01
RMM:   7    -0.117191386420E+04    0.76969E-03   -0.27437E-03 11284   0.504E-02    0.340E-01
RMM:   8    -0.117191498080E+04   -0.11166E-02   -0.15132E-03 10367   0.441E-02    0.373E-01
RMM:   9    -0.117191189732E+04    0.30835E-02   -0.17509E-02 12304   0.139E-01    0.405E-01
RMM:  10    -0.117191446272E+04   -0.25654E-02   -0.53408E-03 11675   0.845E-02    0.377E-01
RMM:  11    -0.117191493868E+04   -0.47596E-03   -0.79712E-04  9631   0.341E-02    0.490E-01
RMM:  12    -0.117191366408E+04    0.12746E-02   -0.22933E-03 10841   0.507E-02    0.468E-01
RMM:  13    -0.117191325333E+04    0.41075E-03   -0.81135E-04 10046   0.299E-02    0.498E-01
RMM:  14    -0.117191316717E+04    0.86162E-04   -0.33261E-04  8642   0.181E-02
  24 F= -.11719132E+04 E0= -.11719070E+04  d E =-.266717E-03  mag=     4.0223
       N       E                     dE             d eps       ncg     rms          rms(c)
DAV:   1    -0.117191355292E+04   -0.29958E-03   -0.88006E-01 12720   0.110E+00    0.672E-01
RMM:   2    -0.117191351120E+04    0.41717E-04   -0.54188E-02 12375   0.276E-01    0.149E+00
RMM:   3    -0.117191424851E+04   -0.73731E-03   -0.33904E-03 12605   0.800E-02    0.684E-01
RMM:   4    -0.117191423386E+04    0.14656E-04   -0.22918E-03 10602   0.500E-02    0.243E-01
RMM:   5    -0.117191459181E+04   -0.35795E-03   -0.51451E-04  9604   0.253E-02    0.164E-01
RMM:   6    -0.117191498838E+04   -0.39658E-03   -0.51661E-04  9815   0.266E-02    0.167E-01
RMM:   7    -0.117191519182E+04   -0.20344E-03   -0.18604E-04  7882   0.158E-02    0.177E-01
RMM:   8    -0.117191440625E+04    0.78557E-03   -0.13857E-03 10339   0.428E-02    0.144E-01
RMM:   9    -0.117191360086E+04    0.80539E-03   -0.23833E-03 10962   0.489E-02    0.202E-01
RMM:  10    -0.117191534577E+04   -0.17449E-02   -0.55354E-03 11731   0.821E-02    0.217E-01
RMM:  11    -0.117191635677E+04   -0.10110E-02   -0.20178E-03 10815   0.475E-02    0.347E-01
RMM:  12    -0.117191417688E+04    0.21799E-02   -0.69125E-03 11796   0.900E-02    0.211E-01
RMM:  13    -0.117191442399E+04   -0.24710E-03   -0.25183E-04  8505   0.194E-02    0.203E-01
RMM:  14    -0.117191270537E+04    0.17186E-02   -0.79829E-03 12209   0.932E-02    0.358E-01
RMM:  15    -0.117191183392E+04    0.87145E-03   -0.24684E-03 11249   0.518E-02    0.459E-01
RMM:  16    -0.117191176052E+04    0.73403E-04   -0.69891E-04  9866   0.248E-02
  25 F= -.11719118E+04 E0= -.11719050E+04  d E =0.140666E-02  mag=     4.0179
       N       E                     dE             d eps       ncg     rms          rms(c)
DAV:   1    -0.117191161522E+04    0.21870E-03   -0.13080E-01 13448   0.416E-01    0.582E-01
RMM:   2    -0.117191128230E+04    0.33293E-03   -0.30439E-02 12171   0.176E-01    0.144E+00
RMM:   3    -0.117191157435E+04   -0.29206E-03   -0.15729E-03 10706   0.523E-02    0.723E-01
RMM:   4    -0.117191176431E+04   -0.18996E-03   -0.18943E-03 10423   0.438E-02    0.311E-01
RMM:   5    -0.117191252259E+04   -0.75827E-03   -0.49584E-04  9450   0.267E-02    0.186E-01
RMM:   6    -0.117191323067E+04   -0.70808E-03   -0.60169E-04 10046   0.287E-02    0.147E-01
RMM:   7    -0.117191406883E+04   -0.83816E-03   -0.15030E-03 10641   0.424E-02    0.117E-01
RMM:   8    -0.117191533167E+04   -0.12628E-02   -0.39479E-03 11488   0.668E-02    0.213E-01
RMM:   9    -0.117191402072E+04    0.13109E-02   -0.30226E-03 11030   0.637E-02    0.111E-01
RMM:  10    -0.117191287275E+04    0.11480E-02   -0.40281E-03 11997   0.666E-02    0.220E-01
RMM:  11    -0.117191276104E+04    0.11170E-03   -0.50291E-04  9385   0.241E-02    0.255E-01
RMM:  12    -0.117191195678E+04    0.80426E-03   -0.10058E-03 10290   0.340E-02    0.348E-01
RMM:  13    -0.117191215927E+04   -0.20249E-03   -0.69016E-05  7304   0.114E-02    0.324E-01
RMM:  14    -0.117191214127E+04    0.18003E-04   -0.10870E-04  7254   0.115E-02
  26 F= -.11719121E+04 E0= -.11719055E+04  d E =-.380751E-03  mag=     4.0184
