       N       E                     dE             d eps       ncg     rms          rms(c)
DAV:   1     0.119974086916E+05    0.11997E+05   -0.42413E+05 12320   0.132E+03
DAV:   2     0.659915465782E+03   -0.11337E+05   -0.10127E+05 12304   0.377E+02
DAV:   3    -0.137773357378E+04   -0.20376E+04   -0.19634E+04 13232   0.166E+02
DAV:   4    -0.151295457128E+04   -0.13522E+03   -0.13302E+03 16280   0.446E+01
DAV:   5    -0.152129007751E+04   -0.83355E+01   -0.83018E+01 22168   0.101E+01    0.180E+02
RMM:   6    -0.117446913635E+04    0.34682E+03   -0.16118E+03 12506   0.348E+01    0.110E+02
RMM:   7    -0.116017139551E+04    0.14298E+02   -0.58326E+01 12798   0.110E+01    0.637E+01
RMM:   8    -0.116408521617E+04   -0.39138E+01   -0.21032E+01 13740   0.521E+00    0.296E+01
RMM:   9    -0.116789503908E+04   -0.38098E+01   -0.46015E+00 13392   0.258E+00    0.831E+00
RMM:  10    -0.116901589450E+04   -0.11209E+01   -0.13253E+00 14647   0.111E+00    0.565E+00
RMM:  11    -0.117025986169E+04   -0.12440E+01   -0.15275E+00 14510   0.965E-01    0.373E+00
RMM:  12    -0.117083461331E+04   -0.57475E+00   -0.62642E-01 13513   0.783E-01    0.184E+00
RMM:  13    -0.117094199879E+04   -0.10739E+00   -0.21294E-01 15204   0.428E-01    0.130E+00
RMM:  14    -0.117097561315E+04   -0.33614E-01   -0.88062E-02 14434   0.265E-01    0.836E-01
RMM:  15    -0.117097752757E+04   -0.19144E-02   -0.23082E-02 17137   0.131E-01    0.367E-01
RMM:  16    -0.117097913144E+04   -0.16039E-02   -0.11371E-02 16327   0.870E-02    0.279E-01
RMM:  17    -0.117097910797E+04    0.23465E-04   -0.20072E-03 14159   0.401E-02    0.134E-01
RMM:  18    -0.117097914124E+04   -0.33264E-04   -0.12203E-03 13303   0.250E-02    0.675E-02
RMM:  19    -0.117097918091E+04   -0.39668E-04   -0.51393E-04 10271   0.174E-02
   1 F= -.11709792E+04 E0= -.11709792E+04  d E =-.117098E+04  mag=     5.9986
       N       E                     dE             d eps       ncg     rms          rms(c)
DAV:   1    -0.117096617719E+04    0.12964E-01   -0.35181E+02 14192   0.212E+01    0.886E+00
RMM:   2    -0.117157412286E+04   -0.60795E+00   -0.15261E+01 12288   0.478E+00    0.908E+00
RMM:   3    -0.117145623706E+04    0.11789E+00   -0.87043E-01 13949   0.130E+00    0.596E+00
RMM:   4    -0.117128922416E+04    0.16701E+00   -0.50203E-01 13548   0.708E-01    0.302E+00
RMM:   5    -0.117127462785E+04    0.14596E-01   -0.27513E-01 12619   0.595E-01    0.403E+00
RMM:   6    -0.117127658832E+04   -0.19605E-02   -0.62826E-02 14952   0.249E-01    0.126E+00
RMM:   7    -0.117133372103E+04   -0.57133E-01   -0.24313E-02 13319   0.142E-01    0.529E+00
RMM:   8    -0.117133548690E+04   -0.17659E-02   -0.33165E-03 15232   0.876E-02    0.548E+00
RMM:   9    -0.117133631820E+04   -0.83130E-03   -0.32057E-02 13018   0.161E-01    0.630E+00
RMM:  10    -0.117130075975E+04    0.35558E-01   -0.15398E-02 12627   0.117E-01    0.509E+00
RMM:  11    -0.117133096334E+04   -0.30204E-01   -0.28497E-03 11141   0.632E-02    0.642E+00
RMM:  12    -0.117131995902E+04    0.11004E-01   -0.14744E-03 11022   0.552E-02    0.642E+00
RMM:  13    -0.117136366284E+04   -0.43704E-01   -0.15925E-03 10618   0.474E-02    0.755E+00
RMM:  14    -0.117134592228E+04    0.17741E-01   -0.14217E-03 10415   0.543E-02    0.729E+00
RMM:  15    -0.117130982127E+04    0.36101E-01   -0.17701E-03 10904   0.623E-02    0.582E+00
RMM:  16    -0.117134214827E+04   -0.32327E-01   -0.46897E-03 11343   0.765E-02    0.709E+00
RMM:  17    -0.117126004806E+04    0.82100E-01   -0.19727E-02 12408   0.200E-01    0.128E+00
RMM:  18    -0.117126809045E+04   -0.80424E-02   -0.10745E-02 12470   0.127E-01    0.463E-01
RMM:  19    -0.117126850959E+04   -0.41913E-03   -0.36417E-03 12553   0.716E-02    0.384E-01
RMM:  20    -0.117126748005E+04    0.10295E-02   -0.81863E-04 10855   0.329E-02    0.288E-01
RMM:  21    -0.117126963485E+04   -0.21548E-02   -0.27041E-04  8722   0.241E-02    0.961E-01
RMM:  22    -0.117126962198E+04    0.12868E-04   -0.14878E-04  7978   0.234E-02
   2 F= -.11712696E+04 E0= -.11712562E+04  d E =-.290441E+00  mag=     5.6558
       N       E                     dE             d eps       ncg     rms          rms(c)
DAV:   1    -0.117162578956E+04   -0.35615E+00   -0.72346E+01 13376   0.972E+00    0.415E+00
RMM:   2    -0.117178332198E+04   -0.15753E+00   -0.26661E+00 12288   0.209E+00    0.413E+00
RMM:   3    -0.117175985172E+04    0.23470E-01   -0.13569E-01 13193   0.555E-01    0.294E+00
RMM:   4    -0.117174631148E+04    0.13540E-01   -0.10034E-01 13047   0.315E-01    0.207E+00
RMM:   5    -0.117173281053E+04    0.13501E-01   -0.29835E-02 12959   0.191E-01    0.577E-01
RMM:   6    -0.117173078708E+04    0.20234E-02   -0.77575E-03 13780   0.799E-02    0.294E-01
RMM:   7    -0.117173049722E+04    0.28986E-03   -0.16910E-03 12054   0.383E-02    0.208E-01
RMM:   8    -0.117173051803E+04   -0.20805E-04   -0.49758E-04 10110   0.267E-02
   3 F= -.11717305E+04 E0= -.11717305E+04  d E =-.751337E+00  mag=     5.9722
       N       E                     dE             d eps       ncg     rms          rms(c)
DAV:   1    -0.117173090818E+04   -0.41096E-03   -0.10870E-01 13600   0.379E-01    0.159E-01
RMM:   2    -0.117173103786E+04   -0.12968E-03   -0.39337E-03 12144   0.809E-02    0.161E-01
RMM:   3    -0.117173099096E+04    0.46901E-04   -0.14936E-04  7814   0.218E-02    0.106E-01
RMM:   4    -0.117173094387E+04    0.47088E-04   -0.14047E-04  7445   0.144E-02    0.572E-02
RMM:   5    -0.117173094480E+04   -0.93067E-06   -0.64829E-05  7188   0.101E-02    0.650E-02
RMM:   6    -0.117173094240E+04    0.24039E-05   -0.18147E-05  6521   0.668E-03    0.141E-02
RMM:   7    -0.117173094251E+04   -0.11697E-06   -0.52001E-06  5209   0.324E-03    0.138E-02
RMM:   8    -0.117173094273E+04   -0.21400E-06   -0.29733E-06  4985   0.298E-03
   4 F= -.11717309E+04 E0= -.11717309E+04  d E =-.751762E+00  mag=     5.9978
       N       E                     dE             d eps       ncg     rms          rms(c)
DAV:   1    -0.117184235887E+04   -0.11142E+00   -0.42255E+01 12752   0.763E+00    0.189E+00
RMM:   2    -0.117191348481E+04   -0.71126E-01   -0.11916E+00 12288   0.137E+00    0.165E+00
RMM:   3    -0.117190578998E+04    0.76948E-02   -0.52843E-02 13570   0.342E-01    0.106E+00
RMM:   4    -0.117189862721E+04    0.71628E-02   -0.24864E-02 13982   0.159E-01    0.604E-01
RMM:   5    -0.117189595216E+04    0.26750E-02   -0.67705E-03 13671   0.897E-02    0.171E-01
RMM:   6    -0.117189598824E+04   -0.36084E-04   -0.11261E-03 14658   0.325E-02    0.127E-01
RMM:   7    -0.117189597191E+04    0.16329E-04   -0.40649E-04 10854   0.178E-02    0.769E-02
RMM:   8    -0.117189598685E+04   -0.14931E-04   -0.20115E-04  8930   0.151E-02
   5 F= -.11718960E+04 E0= -.11718960E+04  d E =-.165044E+00  mag=     5.9998
       N       E                     dE             d eps       ncg     rms          rms(c)
DAV:   1    -0.117189707047E+04   -0.10986E-02   -0.58442E-01 14080   0.898E-01    0.219E-01
RMM:   2    -0.117189806605E+04   -0.99557E-03   -0.16517E-02 12288   0.161E-01    0.194E-01
RMM:   3    -0.117189795627E+04    0.10977E-03   -0.76572E-04 11786   0.439E-02    0.125E-01
RMM:   4    -0.117189785910E+04    0.97174E-04   -0.40926E-04 10319   0.204E-02    0.668E-02
RMM:   5    -0.117189782472E+04    0.34379E-04   -0.88156E-05  7996   0.136E-02    0.207E-02
RMM:   6    -0.117189782744E+04   -0.27199E-05   -0.28990E-05  7221   0.762E-03    0.155E-02
RMM:   7    -0.117189782854E+04   -0.10991E-05   -0.14796E-05  6949   0.599E-03    0.134E-02
RMM:   8    -0.117189782950E+04   -0.96438E-06   -0.10675E-05  6636   0.424E-03
   6 F= -.11718978E+04 E0= -.11718978E+04  d E =-.166887E+00  mag=     6.0000
       N       E                     dE             d eps       ncg     rms          rms(c)
DAV:   1    -0.117189791324E+04   -0.84703E-04   -0.28516E+01 12728   0.626E+00    0.159E+00
RMM:   2    -0.117196535005E+04   -0.67437E-01   -0.84192E-01 12292   0.114E+00    0.159E+00
RMM:   3    -0.117196185925E+04    0.34908E-02   -0.33440E-02 13298   0.297E-01    0.110E+00
RMM:   4    -0.117195881856E+04    0.30407E-02   -0.14265E-02 14057   0.122E-01    0.572E-01
RMM:   5    -0.117195754763E+04    0.12709E-02   -0.53580E-03 13579   0.767E-02    0.277E-01
RMM:   6    -0.117195750485E+04    0.42785E-04   -0.54539E-04 11285   0.267E-02    0.719E-02
RMM:   7    -0.117195748306E+04    0.21785E-04   -0.25673E-04  9268   0.149E-02    0.468E-02
RMM:   8    -0.117195748150E+04    0.15636E-05   -0.15338E-04  8109   0.141E-02
   7 F= -.11719575E+04 E0= -.11719575E+04  d E =-.596520E-01  mag=     6.0000
       N       E                     dE             d eps       ncg     rms          rms(c)
DAV:   1    -0.117195749833E+04   -0.15265E-04   -0.85982E-02 13800   0.345E-01    0.865E-02
RMM:   2    -0.117195771238E+04   -0.21405E-03   -0.26704E-03 12200   0.638E-02    0.884E-02
RMM:   3    -0.117195769782E+04    0.14561E-04   -0.98363E-05  7363   0.183E-02    0.620E-02
RMM:   4    -0.117195768928E+04    0.85412E-05   -0.50684E-05  7124   0.909E-03    0.318E-02
RMM:   5    -0.117195768858E+04    0.70402E-06   -0.24425E-05  6965   0.683E-03    0.145E-02
RMM:   6    -0.117195768952E+04   -0.94007E-06   -0.10240E-05  6477   0.458E-03    0.708E-03
RMM:   7    -0.117195768997E+04   -0.45657E-06   -0.56908E-06  5582   0.364E-03    0.459E-03
RMM:   8    -0.117195769029E+04   -0.31352E-06   -0.35087E-06  4799   0.306E-03
   8 F= -.11719577E+04 E0= -.11719577E+04  d E =-.598608E-01  mag=     6.0000
       N       E                     dE             d eps       ncg     rms          rms(c)
DAV:   1    -0.117196274286E+04   -0.50529E-02   -0.95180E+00 12792   0.368E+00    0.794E-01
RMM:   2    -0.117198352222E+04   -0.20779E-01   -0.25845E-01 12296   0.640E-01    0.720E-01
RMM:   3    -0.117198275401E+04    0.76821E-03   -0.10865E-02 12930   0.179E-01    0.482E-01
RMM:   4    -0.117198218866E+04    0.56534E-03   -0.41927E-03 14196   0.647E-02    0.269E-01
RMM:   5    -0.117198183108E+04    0.35759E-03   -0.12544E-03 13478   0.356E-02    0.621E-02
RMM:   6    -0.117198183520E+04   -0.41245E-05   -0.19022E-04  8475   0.143E-02    0.354E-02
RMM:   7    -0.117198183833E+04   -0.31283E-05   -0.88792E-05  7423   0.118E-02    0.227E-02
RMM:   8    -0.117198184311E+04   -0.47841E-05   -0.57333E-05  7201   0.833E-03
   9 F= -.11719818E+04 E0= -.11719818E+04  d E =-.241528E-01  mag=     6.0000
       N       E                     dE             d eps       ncg     rms          rms(c)
DAV:   1    -0.117197756903E+04    0.42693E-02   -0.45752E+00 12808   0.255E+00    0.548E-01
RMM:   2    -0.117198758199E+04   -0.10013E-01   -0.12437E-01 12296   0.443E-01    0.497E-01
RMM:   3    -0.117198720833E+04    0.37366E-03   -0.53133E-03 12898   0.125E-01    0.332E-01
RMM:   4    -0.117198694503E+04    0.26330E-03   -0.21152E-03 13795   0.457E-02    0.185E-01
RMM:   5    -0.117198677155E+04    0.17348E-03   -0.62336E-04 11708   0.253E-02    0.435E-02
RMM:   6    -0.117198677319E+04   -0.16379E-05   -0.92603E-05  7400   0.115E-02    0.240E-02
RMM:   7    -0.117198677561E+04   -0.24230E-05   -0.49000E-05  7198   0.975E-03    0.149E-02
RMM:   8    -0.117198677864E+04   -0.30334E-05   -0.32555E-05  7025   0.684E-03
  10 F= -.11719868E+04 E0= -.11719868E+04  d E =-.290884E-01  mag=     6.0000
       N       E                     dE             d eps       ncg     rms          rms(c)
DAV:   1    -0.117199292402E+04   -0.61484E-02   -0.56275E+00 12808   0.279E+00    0.593E-01
RMM:   2    -0.117200477488E+04   -0.11851E-01   -0.14154E-01 12301   0.463E-01    0.408E-01
RMM:   3    -0.117200437553E+04    0.39935E-03   -0.65143E-03 12527   0.143E-01    0.258E-01
RMM:   4    -0.117200389976E+04    0.47577E-03   -0.24543E-03 14728   0.496E-02    0.120E-01
RMM:   5    -0.117200386323E+04    0.36528E-04   -0.57824E-04 11882   0.238E-02    0.391E-02
RMM:   6    -0.117200386510E+04   -0.18761E-05   -0.10634E-04  7432   0.117E-02    0.252E-02
RMM:   7    -0.117200386954E+04   -0.44383E-05   -0.62595E-05  7208   0.103E-02    0.133E-02
RMM:   8    -0.117200387326E+04   -0.37203E-05   -0.39953E-05  7013   0.736E-03
  11 F= -.11720039E+04 E0= -.11720039E+04  d E =-.170946E-01  mag=     6.0000
       N       E                     dE             d eps       ncg     rms          rms(c)
DAV:   1    -0.117199431109E+04    0.95585E-02   -0.89557E+00 12704   0.352E+00    0.746E-01
RMM:   2    -0.117201315863E+04   -0.18848E-01   -0.22512E-01 12309   0.585E-01    0.513E-01
RMM:   3    -0.117201254861E+04    0.61002E-03   -0.10408E-02 12640   0.181E-01    0.324E-01
RMM:   4    -0.117201179482E+04    0.75379E-03   -0.38532E-03 15158   0.618E-02    0.153E-01
RMM:   5    -0.117201173674E+04    0.58084E-04   -0.93269E-04 13649   0.293E-02    0.467E-02
RMM:   6    -0.117201174138E+04   -0.46440E-05   -0.17698E-04  8263   0.137E-02    0.315E-02
RMM:   7    -0.117201174854E+04   -0.71593E-05   -0.10259E-04  7506   0.119E-02    0.161E-02
RMM:   8    -0.117201175379E+04   -0.52513E-05   -0.61649E-05  7214   0.867E-03
  12 F= -.11720118E+04 E0= -.11720118E+04  d E =-.249751E-01  mag=     6.0000
       N       E                     dE             d eps       ncg     rms          rms(c)
DAV:   1    -0.117201229836E+04   -0.54982E-03   -0.44256E+00 12944   0.241E+00    0.462E-01
RMM:   2    -0.117202163701E+04   -0.93387E-02   -0.11095E-01 12300   0.405E-01    0.376E-01
RMM:   3    -0.117202127404E+04    0.36297E-03   -0.48616E-03 12444   0.119E-01    0.246E-01
RMM:   4    -0.117202095687E+04    0.31717E-03   -0.18864E-03 13042   0.433E-02    0.149E-01
RMM:   5    -0.117202084142E+04    0.11545E-03   -0.38435E-04 10400   0.218E-02    0.415E-02
RMM:   6    -0.117202084490E+04   -0.34775E-05   -0.90094E-05  7274   0.118E-02    0.243E-02
RMM:   7    -0.117202084802E+04   -0.31155E-05   -0.50444E-05  7125   0.937E-03    0.201E-02
RMM:   8    -0.117202085005E+04   -0.20385E-05   -0.28787E-05  6939   0.716E-03
  13 F= -.11720209E+04 E0= -.11720208E+04  d E =-.909626E-02  mag=     6.0000
       N       E                     dE             d eps       ncg     rms          rms(c)
DAV:   1    -0.117201945797E+04    0.13900E-02   -0.15173E+00 13096   0.141E+00    0.270E-01
RMM:   2    -0.117202266768E+04   -0.32097E-02   -0.38136E-02 12304   0.238E-01    0.221E-01
RMM:   3    -0.117202254699E+04    0.12069E-03   -0.17159E-03 12191   0.714E-02    0.144E-01
RMM:   4    -0.117202244033E+04    0.10665E-03   -0.67729E-04 11515   0.258E-02    0.814E-02
RMM:   5    -0.117202239605E+04    0.44279E-04   -0.11871E-04  7986   0.149E-02    0.220E-02
RMM:   6    -0.117202240001E+04   -0.39581E-05   -0.41555E-05  7038   0.905E-03    0.144E-02
RMM:   7    -0.117202240188E+04   -0.18708E-05   -0.22975E-05  6905   0.704E-03    0.160E-02
RMM:   8    -0.117202240299E+04   -0.11089E-05   -0.14566E-05  6503   0.516E-03
  14 F= -.11720224E+04 E0= -.11720224E+04  d E =-.106492E-01  mag=     6.0000
       N       E                     dE             d eps       ncg     rms          rms(c)
DAV:   1    -0.117202138893E+04    0.10129E-02   -0.41997E+00 12848   0.236E+00    0.432E-01
RMM:   2    -0.117203074698E+04   -0.93580E-02   -0.10387E-01 12299   0.395E-01    0.319E-01
RMM:   3    -0.117203054507E+04    0.20191E-03   -0.45950E-03 12206   0.119E-01    0.205E-01
RMM:   4    -0.117203034793E+04    0.19713E-03   -0.15303E-03 13111   0.394E-02    0.119E-01
RMM:   5    -0.117203027767E+04    0.70265E-04   -0.35801E-04 10132   0.207E-02    0.397E-02
RMM:   6    -0.117203028327E+04   -0.56047E-05   -0.69289E-05  7196   0.115E-02    0.176E-02
RMM:   7    -0.117203028681E+04   -0.35318E-05   -0.44951E-05  7048   0.878E-03    0.127E-02
RMM:   8    -0.117203028892E+04   -0.21163E-05   -0.27938E-05  6779   0.689E-03
  15 F= -.11720303E+04 E0= -.11720303E+04  d E =-.788593E-02  mag=     6.0000
       N       E                     dE             d eps       ncg     rms          rms(c)
DAV:   1    -0.117202359296E+04    0.66938E-02   -0.45805E+00 12736   0.246E+00    0.452E-01
RMM:   2    -0.117203382219E+04   -0.10229E-01   -0.11352E-01 12300   0.413E-01    0.333E-01
RMM:   3    -0.117203360058E+04    0.22161E-03   -0.50512E-03 12272   0.125E-01    0.214E-01
RMM:   4    -0.117203338610E+04    0.21448E-03   -0.16785E-03 13584   0.410E-02    0.119E-01
RMM:   5    -0.117203331605E+04    0.70052E-04   -0.43381E-04 10832   0.215E-02    0.353E-02
RMM:   6    -0.117203331932E+04   -0.32753E-05   -0.66633E-05  7235   0.116E-02    0.181E-02
RMM:   7    -0.117203332339E+04   -0.40631E-05   -0.52711E-05  7127   0.876E-03    0.119E-02
RMM:   8    -0.117203332577E+04   -0.23831E-05   -0.31482E-05  6844   0.742E-03
  16 F= -.11720333E+04 E0= -.11720333E+04  d E =-.109228E-01  mag=     6.0000
       N       E                     dE             d eps       ncg     rms          rms(c)
DAV:   1    -0.117202891482E+04    0.44086E-02   -0.50237E+00 12704   0.260E+00    0.493E-01
RMM:   2    -0.117203964655E+04   -0.10732E-01   -0.12427E-01 12304   0.431E-01    0.356E-01
RMM:   3    -0.117203938020E+04    0.26634E-03   -0.56508E-03 12277   0.133E-01    0.228E-01
RMM:   4    -0.117203907391E+04    0.30630E-03   -0.19643E-03 14001   0.445E-02    0.118E-01
RMM:   5    -0.117203901447E+04    0.59437E-04   -0.46846E-04 11058   0.224E-02    0.576E-02
RMM:   6    -0.117203901862E+04   -0.41496E-05   -0.82653E-05  7288   0.119E-02    0.238E-02
RMM:   7    -0.117203902328E+04   -0.46605E-05   -0.53231E-05  7153   0.908E-03    0.145E-02
RMM:   8    -0.117203902642E+04   -0.31393E-05   -0.35900E-05  6975   0.753E-03
  17 F= -.11720390E+04 E0= -.11720390E+04  d E =-.570065E-02  mag=     6.0000
       N       E                     dE             d eps       ncg     rms          rms(c)
DAV:   1    -0.117203855700E+04    0.46628E-03   -0.35881E-01 13504   0.696E-01    0.131E-01
RMM:   2    -0.117203933924E+04   -0.78223E-03   -0.90309E-03 12406   0.116E-01    0.955E-02
RMM:   3    -0.117203931383E+04    0.25406E-04   -0.39431E-04  9156   0.360E-02    0.617E-02
RMM:   4    -0.117203929131E+04    0.22517E-04   -0.13157E-04  7219   0.132E-02    0.307E-02
RMM:   5    -0.117203928980E+04    0.15122E-05   -0.40946E-05  6981   0.878E-03    0.219E-02
RMM:   6    -0.117203929155E+04   -0.17535E-05   -0.17794E-05  6786   0.606E-03    0.998E-03
RMM:   7    -0.117203929260E+04   -0.10456E-05   -0.10796E-05  6283   0.452E-03    0.795E-03
RMM:   8    -0.117203929324E+04   -0.63717E-06   -0.67344E-06  5620   0.383E-03
  18 F= -.11720393E+04 E0= -.11720393E+04  d E =-.596747E-02  mag=     6.0000
       N       E                     dE             d eps       ncg     rms          rms(c)
DAV:   1    -0.117203460283E+04    0.46898E-02   -0.38445E+00 12664   0.226E+00    0.423E-01
RMM:   2    -0.117204306218E+04   -0.84594E-02   -0.95000E-02 12297   0.378E-01    0.333E-01
RMM:   3    -0.117204286188E+04    0.20030E-03   -0.41879E-03 12205   0.114E-01    0.216E-01
RMM:   4    -0.117204265816E+04    0.20372E-03   -0.13857E-03 12862   0.372E-02    0.128E-01
RMM:   5    -0.117204257579E+04    0.82372E-04   -0.37150E-04 10014   0.211E-02    0.474E-02
RMM:   6    -0.117204258090E+04   -0.51110E-05   -0.65256E-05  7160   0.114E-02    0.181E-02
RMM:   7    -0.117204258389E+04   -0.29867E-05   -0.38433E-05  7009   0.833E-03    0.121E-02
RMM:   8    -0.117204258570E+04   -0.18186E-05   -0.25338E-05  6786   0.691E-03
  19 F= -.11720426E+04 E0= -.11720426E+04  d E =-.329247E-02  mag=     6.0000
       N       E                     dE             d eps       ncg     rms          rms(c)
DAV:   1    -0.117204244078E+04    0.14310E-03   -0.10988E-01 13248   0.383E-01    0.708E-02
RMM:   2    -0.117204269241E+04   -0.25163E-03   -0.28194E-03 12284   0.654E-02    0.567E-02
RMM:   3    -0.117204268283E+04    0.95859E-05   -0.10759E-04  7116   0.201E-02    0.369E-02
RMM:   4    -0.117204267821E+04    0.46168E-05   -0.46576E-05  6977   0.802E-03    0.215E-02
RMM:   5    -0.117204267726E+04    0.94791E-06   -0.15729E-05  6714   0.564E-03    0.128E-02
RMM:   6    -0.117204267802E+04   -0.75082E-06   -0.74036E-06  5795   0.370E-03    0.458E-03
RMM:   7    -0.117204267840E+04   -0.38830E-06   -0.39889E-06  4821   0.331E-03    0.380E-03
RMM:   8    -0.117204267862E+04   -0.21509E-06   -0.23183E-06  3609   0.252E-03
  20 F= -.11720427E+04 E0= -.11720427E+04  d E =-.338538E-02  mag=     6.0000
       N       E                     dE             d eps       ncg     rms          rms(c)
DAV:   1    -0.117204230130E+04    0.37710E-03   -0.87404E-01 12928   0.109E+00    0.225E-01
RMM:   2    -0.117204413041E+04   -0.18291E-02   -0.22652E-02 12296   0.186E-01    0.185E-01
RMM:   3    -0.117204404735E+04    0.83057E-04   -0.96958E-04 11762   0.536E-02    0.121E-01
RMM:   4    -0.117204397259E+04    0.74761E-04   -0.41644E-04 10190   0.208E-02    0.642E-02
RMM:   5    -0.117204394609E+04    0.26497E-04   -0.72741E-05  7301   0.126E-02    0.226E-02
RMM:   6    -0.117204394892E+04   -0.28265E-05   -0.25606E-05  6973   0.715E-03    0.122E-02
RMM:   7    -0.117204394988E+04   -0.96703E-06   -0.12562E-05  6597   0.555E-03    0.825E-03
RMM:   8    -0.117204395063E+04   -0.74226E-06   -0.84495E-06  6091   0.393E-03
  21 F= -.11720440E+04 E0= -.11720440E+04  d E =-.127201E-02  mag=     6.0000
       N       E                     dE             d eps       ncg     rms          rms(c)
DAV:   1    -0.117204395200E+04   -0.21202E-05   -0.40237E-04 12264   0.240E-02    0.525E-03
RMM:   2    -0.117204395324E+04   -0.12321E-05   -0.14929E-05  6367   0.546E-03    0.461E-03
RMM:   3    -0.117204395347E+04   -0.23699E-06   -0.23479E-06  3817   0.298E-03    0.302E-03
RMM:   4    -0.117204395351E+04   -0.37588E-07   -0.85286E-07  2367   0.210E-03    0.213E-03
RMM:   5    -0.117204395352E+04   -0.10172E-07   -0.51572E-07  2029   0.215E-03    0.535E-04
RMM:   6    -0.117204395353E+04   -0.44674E-08   -0.56817E-08  1303   0.189E-03    0.267E-04
RMM:   7    -0.117204395353E+04   -0.23283E-08   -0.40975E-08  1036   0.187E-03    0.257E-04
RMM:   8    -0.117204395353E+04   -0.10477E-08   -0.14979E-08   926   0.186E-03
  22 F= -.11720440E+04 E0= -.11720440E+04  d E =-.127491E-02  mag=     6.0000
       N       E                     dE             d eps       ncg     rms          rms(c)
DAV:   1    -0.117204365713E+04    0.29639E-03   -0.55720E-01 12872   0.881E-01    0.184E-01
RMM:   2    -0.117204490389E+04   -0.12468E-02   -0.14562E-02 12300   0.151E-01    0.143E-01
RMM:   3    -0.117204486452E+04    0.39374E-04   -0.61304E-04 10672   0.450E-02    0.921E-02
RMM:   4    -0.117204482262E+04    0.41899E-04   -0.21602E-04  7706   0.164E-02    0.499E-02
RMM:   5    -0.117204481746E+04    0.51580E-05   -0.50907E-05  7010   0.104E-02    0.258E-02
RMM:   6    -0.117204481967E+04   -0.22098E-05   -0.20745E-05  6865   0.651E-03    0.115E-02
RMM:   7    -0.117204482065E+04   -0.97670E-06   -0.11134E-05  6380   0.511E-03    0.974E-03
RMM:   8    -0.117204482141E+04   -0.75602E-06   -0.74830E-06  5491   0.380E-03
  23 F= -.11720448E+04 E0= -.11720448E+04  d E =-.867877E-03  mag=     6.0000
       N       E                     dE             d eps       ncg     rms          rms(c)
DAV:   1    -0.117204478935E+04    0.31300E-04   -0.36238E-02 12256   0.225E-01    0.471E-02
RMM:   2    -0.117204487414E+04   -0.84791E-04   -0.98190E-04 12138   0.394E-02    0.367E-02
RMM:   3    -0.117204487063E+04    0.35153E-05   -0.35650E-05  6855   0.116E-02    0.236E-02
RMM:   4    -0.117204486868E+04    0.19428E-05   -0.17940E-05  6773   0.518E-03    0.155E-02
RMM:   5    -0.117204486863E+04    0.57509E-07   -0.51629E-06  5513   0.377E-03    0.109E-02
RMM:   6    -0.117204486887E+04   -0.24874E-06   -0.26680E-06  3797   0.244E-03    0.225E-03
RMM:   7    -0.117204486899E+04   -0.11620E-06   -0.11637E-06  3230   0.250E-03    0.268E-03
RMM:   8    -0.117204486904E+04   -0.53624E-07   -0.44453E-07  2411   0.199E-03
  24 F= -.11720449E+04 E0= -.11720449E+04  d E =-.915515E-03  mag=     6.0000
       N       E                     dE             d eps       ncg     rms          rms(c)
DAV:   1    -0.117204432559E+04    0.54340E-03   -0.52537E-01 12736   0.854E-01    0.174E-01
RMM:   2    -0.117204543495E+04   -0.11094E-02   -0.13712E-02 12300   0.146E-01    0.141E-01
RMM:   3    -0.117204538313E+04    0.51822E-04   -0.56451E-04 10415   0.426E-02    0.921E-02
RMM:   4    -0.117204533712E+04    0.46009E-04   -0.24447E-04  8030   0.171E-02    0.505E-02
RMM:   5    -0.117204532816E+04    0.89553E-05   -0.49807E-05  7047   0.104E-02    0.296E-02
RMM:   6    -0.117204533020E+04   -0.20398E-05   -0.20204E-05  6905   0.634E-03    0.118E-02
RMM:   7    -0.117204533111E+04   -0.90577E-06   -0.10251E-05  6479   0.501E-03    0.977E-03
RMM:   8    -0.117204533178E+04   -0.67483E-06   -0.68252E-06  5702   0.364E-03
  25 F= -.11720453E+04 E0= -.11720453E+04  d E =-.462739E-03  mag=     6.0000
       N       E                     dE             d eps       ncg     rms          rms(c)
DAV:   1    -0.117204532845E+04    0.26613E-05   -0.90749E-03 13056   0.112E-01    0.230E-02
RMM:   2    -0.117204534470E+04   -0.16250E-04   -0.20964E-04  7476   0.198E-02    0.208E-02
RMM:   3    -0.117204534597E+04   -0.12744E-05   -0.17283E-05  6458   0.813E-03    0.114E-02
RMM:   4    -0.117204534558E+04    0.39092E-06   -0.44969E-06  5532   0.323E-03    0.969E-03
RMM:   5    -0.117204534505E+04    0.53050E-06   -0.99534E-07  3483   0.222E-03    0.352E-03
RMM:   6    -0.117204534501E+04    0.35448E-07   -0.13903E-07  1306   0.183E-03    0.137E-03
RMM:   7    -0.117204534501E+04    0.23429E-08   -0.40746E-08  1093   0.183E-03    0.786E-04
RMM:   8    -0.117204534501E+04    0.28231E-08   -0.16685E-09   982   0.182E-03
  26 F= -.11720453E+04 E0= -.11720453E+04  d E =-.475965E-03  mag=     6.0000
       N       E                     dE             d eps       ncg     rms          rms(c)
DAV:   1    -0.117204507117E+04    0.27384E-03   -0.29016E-01 12520   0.626E-01    0.119E-01
RMM:   2    -0.117204568560E+04   -0.61444E-03   -0.71929E-03 12298   0.105E-01    0.906E-02
RMM:   3    -0.117204566292E+04    0.22687E-04   -0.27407E-04  8096   0.304E-02    0.581E-02
RMM:   4    -0.117204564304E+04    0.19874E-04   -0.10555E-04  7036   0.123E-02    0.319E-02
RMM:   5    -0.117204564092E+04    0.21196E-05   -0.27239E-05  6874   0.782E-03    0.187E-02
RMM:   6    -0.117204564223E+04   -0.13069E-05   -0.12151E-05  6477   0.471E-03    0.767E-03
RMM:   7    -0.117204564284E+04   -0.61351E-06   -0.59628E-06  5431   0.387E-03    0.635E-03
RMM:   8    -0.117204564326E+04   -0.41223E-06   -0.36936E-06  4210   0.282E-03
  27 F= -.11720456E+04 E0= -.11720456E+04  d E =-.298247E-03  mag=     6.0000
