       N       E                     dE             d eps       ncg     rms          rms(c)
DAV:   1    -0.116112651578E+04   -0.11611E+04   -0.21687E-05  7784   0.124E-02    0.114E-02
RMM:   2    -0.116112653253E+04   -0.16750E-04   -0.33801E-05  6684   0.812E-03    0.144E-02
RMM:   3    -0.116112653763E+04   -0.50937E-05   -0.13164E-05  6010   0.409E-03    0.124E-02
RMM:   4    -0.116112653297E+04    0.46614E-05   -0.57241E-06  5565   0.417E-03    0.120E-02
RMM:   5    -0.116112652885E+04    0.41134E-05   -0.41408E-06  4479   0.306E-03    0.129E-02
RMM:   6    -0.116112652059E+04    0.82616E-05   -0.36280E-06  4257   0.291E-03    0.126E-02
RMM:   7    -0.116112650678E+04    0.13809E-04   -0.51881E-06  4520   0.336E-03    0.140E-02
RMM:   8    -0.116112654540E+04   -0.38619E-04   -0.20521E-05  5469   0.704E-03
   1 F= -.11611265E+04 E0= -.11611265E+04  d E =-.116113E+04  mag=     8.0000
       N       E                     dE             d eps       ncg     rms          rms(c)
DAV:   1    -0.116113100315E+04   -0.44964E-02   -0.23041E+00 12808   0.176E+00    0.574E-01
RMM:   2    -0.116113501214E+04   -0.40090E-02   -0.75798E-02 12363   0.357E-01    0.539E-01
RMM:   3    -0.116113435416E+04    0.65798E-03   -0.41805E-03 12643   0.115E-01    0.357E-01
RMM:   4    -0.116113358257E+04    0.77160E-03   -0.26925E-03 12287   0.552E-02    0.181E-01
RMM:   5    -0.116113335280E+04    0.22977E-03   -0.64233E-04 10631   0.339E-02    0.684E-02
RMM:   6    -0.116113335658E+04   -0.37774E-05   -0.94354E-05  8039   0.118E-02    0.478E-02
RMM:   7    -0.116113336692E+04   -0.10346E-04   -0.50656E-05  7415   0.102E-02    0.259E-02
RMM:   8    -0.116113337696E+04   -0.10033E-04   -0.26091E-05  7173   0.775E-03
   2 F= -.11611334E+04 E0= -.11611334E+04  d E =-.683155E-02  mag=     8.0000
       N       E                     dE             d eps       ncg     rms          rms(c)
DAV:   1    -0.116113711170E+04   -0.37448E-02   -0.74083E-01 12832   0.983E-01    0.298E-01
RMM:   2    -0.116113814001E+04   -0.10283E-02   -0.25129E-02 12302   0.201E-01    0.340E-01
RMM:   3    -0.116113790470E+04    0.23531E-03   -0.11388E-03 12079   0.588E-02    0.247E-01
RMM:   4    -0.116113766770E+04    0.23699E-03   -0.84644E-04 10848   0.304E-02    0.128E-01
RMM:   5    -0.116113755398E+04    0.11373E-03   -0.23055E-04  8919   0.218E-02    0.354E-02
RMM:   6    -0.116113755915E+04   -0.51790E-05   -0.51317E-05  7189   0.967E-03    0.275E-02
RMM:   7    -0.116113756389E+04   -0.47349E-05   -0.19622E-05  6812   0.702E-03    0.221E-02
RMM:   8    -0.116113757526E+04   -0.11375E-04   -0.20904E-05  6915   0.611E-03
   3 F= -.11611376E+04 E0= -.11611376E+04  d E =-.419831E-02  mag=     8.0000
       N       E                     dE             d eps       ncg     rms          rms(c)
DAV:   1    -0.116113906969E+04   -0.15058E-02   -0.62114E-01 12744   0.919E-01    0.204E-01
RMM:   2    -0.116114045908E+04   -0.13894E-02   -0.16383E-02 12808   0.164E-01    0.162E-01
RMM:   3    -0.116114043753E+04    0.21554E-04   -0.82763E-04 11248   0.535E-02    0.105E-01
RMM:   4    -0.116114040105E+04    0.36477E-04   -0.23458E-04  8299   0.198E-02    0.605E-02
RMM:   5    -0.116114039503E+04    0.60233E-05   -0.84048E-05  7320   0.133E-02    0.172E-02
RMM:   6    -0.116114040115E+04   -0.61214E-05   -0.25821E-05  6927   0.830E-03    0.138E-02
RMM:   7    -0.116114040625E+04   -0.51019E-05   -0.16158E-05  6574   0.534E-03    0.114E-02
RMM:   8    -0.116114041433E+04   -0.80754E-05   -0.11310E-05  6447   0.518E-03
   4 F= -.11611404E+04 E0= -.11611404E+04  d E =-.283907E-02  mag=     8.0000
       N       E                     dE             d eps       ncg     rms          rms(c)
DAV:   1    -0.116114114884E+04   -0.74259E-03   -0.12024E+00 12656   0.127E+00    0.260E-01
RMM:   2    -0.116114386883E+04   -0.27200E-02   -0.29722E-02 12932   0.215E-01    0.173E-01
RMM:   3    -0.116114384028E+04    0.28552E-04   -0.14270E-03 12210   0.698E-02    0.108E-01
RMM:   4    -0.116114378412E+04    0.56165E-04   -0.36775E-04  9416   0.241E-02    0.503E-02
RMM:   5    -0.116114379174E+04   -0.76201E-05   -0.95084E-05  7249   0.149E-02    0.149E-02
RMM:   6    -0.116114379952E+04   -0.77830E-05   -0.36335E-05  7017   0.940E-03    0.124E-02
RMM:   7    -0.116114380617E+04   -0.66479E-05   -0.24778E-05  6789   0.697E-03    0.107E-02
RMM:   8    -0.116114381470E+04   -0.85369E-05   -0.16648E-05  6691   0.593E-03
   5 F= -.11611438E+04 E0= -.11611438E+04  d E =-.340037E-02  mag=     8.0000
       N       E                     dE             d eps       ncg     rms          rms(c)
DAV:   1    -0.116114396937E+04   -0.16320E-03   -0.13567E+00 12656   0.134E+00    0.258E-01
RMM:   2    -0.116114703473E+04   -0.30654E-02   -0.33202E-02 12987   0.225E-01    0.167E-01
RMM:   3    -0.116114700111E+04    0.33621E-04   -0.15580E-03 12222   0.718E-02    0.105E-01
RMM:   4    -0.116114694552E+04    0.55595E-04   -0.38791E-04  9558   0.247E-02    0.467E-02
RMM:   5    -0.116114695727E+04   -0.11751E-04   -0.99659E-05  7249   0.150E-02    0.146E-02
RMM:   6    -0.116114696512E+04   -0.78540E-05   -0.38870E-05  7023   0.980E-03    0.113E-02
RMM:   7    -0.116114697182E+04   -0.66931E-05   -0.27062E-05  6845   0.723E-03    0.100E-02
RMM:   8    -0.116114697974E+04   -0.79195E-05   -0.17949E-05  6714   0.616E-03
   6 F= -.11611470E+04 E0= -.11611470E+04  d E =-.316503E-02  mag=     8.0000
       N       E                     dE             d eps       ncg     rms          rms(c)
DAV:   1    -0.116114698701E+04   -0.15189E-04   -0.12376E+00 12648   0.128E+00    0.239E-01
RMM:   2    -0.116114979647E+04   -0.28095E-02   -0.30103E-02 12927   0.213E-01    0.152E-01
RMM:   3    -0.116114976650E+04    0.29968E-04   -0.14162E-03 12035   0.687E-02    0.962E-02
RMM:   4    -0.116114972045E+04    0.46048E-04   -0.35362E-04  9223   0.234E-02    0.413E-02
RMM:   5    -0.116114973268E+04   -0.12230E-04   -0.84694E-05  7176   0.140E-02    0.138E-02
RMM:   6    -0.116114974030E+04   -0.76201E-05   -0.35856E-05  6997   0.901E-03    0.118E-02
RMM:   7    -0.116114974612E+04   -0.58146E-05   -0.23664E-05  6703   0.677E-03    0.983E-03
RMM:   8    -0.116114975446E+04   -0.83384E-05   -0.17856E-05  6599   0.601E-03
   7 F= -.11611498E+04 E0= -.11611498E+04  d E =-.277472E-02  mag=     8.0000
       N       E                     dE             d eps       ncg     rms          rms(c)
DAV:   1    -0.116114748993E+04    0.22562E-02   -0.26453E+00 12648   0.185E+00    0.335E-01
RMM:   2    -0.116115345410E+04   -0.59642E-02   -0.63352E-02 12992   0.309E-01    0.214E-01
RMM:   3    -0.116115338631E+04    0.67790E-04   -0.29198E-03 12874   0.978E-02    0.136E-01
RMM:   4    -0.116115328283E+04    0.10348E-03   -0.75417E-04 11943   0.324E-02    0.598E-02
RMM:   5    -0.116115329621E+04   -0.13382E-04   -0.16372E-04  7656   0.173E-02    0.175E-02
RMM:   6    -0.116115330536E+04   -0.91498E-05   -0.48506E-05  7118   0.108E-02    0.126E-02
RMM:   7    -0.116115331290E+04   -0.75368E-05   -0.37917E-05  6966   0.834E-03    0.117E-02
RMM:   8    -0.116115332031E+04   -0.74144E-05   -0.22831E-05  6752   0.665E-03
   8 F= -.11611533E+04 E0= -.11611533E+04  d E =-.356586E-02  mag=     8.0000
       N       E                     dE             d eps       ncg     rms          rms(c)
DAV:   1    -0.116114887124E+04    0.44417E-02   -0.36339E+00 12608   0.217E+00    0.389E-01
RMM:   2    -0.116115710239E+04   -0.82311E-02   -0.86656E-02 13015   0.361E-01    0.245E-01
RMM:   3    -0.116115702245E+04    0.79937E-04   -0.40474E-03 13039   0.115E-01    0.156E-01
RMM:   4    -0.116115688012E+04    0.14233E-03   -0.10610E-03 12946   0.378E-02    0.690E-02
RMM:   5    -0.116115690151E+04   -0.21392E-04   -0.22133E-04  8315   0.185E-02    0.206E-02
RMM:   6    -0.116115691139E+04   -0.98760E-05   -0.52416E-05  7173   0.113E-02    0.144E-02
RMM:   7    -0.116115692130E+04   -0.99140E-05   -0.50089E-05  7087   0.897E-03    0.115E-02
RMM:   8    -0.116115693012E+04   -0.88202E-05   -0.29957E-05  6841   0.716E-03
   9 F= -.11611569E+04 E0= -.11611569E+04  d E =-.360981E-02  mag=     8.0000
       N       E                     dE             d eps       ncg     rms          rms(c)
DAV:   1    -0.116115423083E+04    0.26905E-02   -0.23633E+00 12560   0.174E+00    0.307E-01
RMM:   2    -0.116115959953E+04   -0.53687E-02   -0.56120E-02 13015   0.289E-01    0.193E-01
RMM:   3    -0.116115954476E+04    0.54766E-04   -0.26313E-03 12745   0.912E-02    0.123E-01
RMM:   4    -0.116115944903E+04    0.95734E-04   -0.65719E-04 11559   0.303E-02    0.558E-02
RMM:   5    -0.116115946601E+04   -0.16974E-04   -0.15048E-04  7611   0.166E-02    0.166E-02
RMM:   6    -0.116115947518E+04   -0.91771E-05   -0.43862E-05  7090   0.103E-02    0.120E-02
RMM:   7    -0.116115948353E+04   -0.83516E-05   -0.35937E-05  6929   0.799E-03    0.105E-02
RMM:   8    -0.116115949068E+04   -0.71421E-05   -0.21421E-05  6692   0.641E-03
  10 F= -.11611595E+04 E0= -.11611595E+04  d E =-.256055E-02  mag=     8.0000
       N       E                     dE             d eps       ncg     rms          rms(c)
DAV:   1    -0.116115666798E+04    0.28156E-02   -0.22246E+00 12624   0.168E+00    0.298E-01
RMM:   2    -0.116116173529E+04   -0.50673E-02   -0.52658E-02 13004   0.280E-01    0.187E-01
RMM:   3    -0.116116168760E+04    0.47697E-04   -0.24573E-03 12702   0.885E-02    0.119E-01
RMM:   4    -0.116116159633E+04    0.91268E-04   -0.60259E-04 11248   0.292E-02    0.547E-02
RMM:   5    -0.116116161270E+04   -0.16374E-04   -0.14121E-04  7508   0.162E-02    0.164E-02
RMM:   6    -0.116116162150E+04   -0.87930E-05   -0.41145E-05  7063   0.101E-02    0.120E-02
RMM:   7    -0.116116162968E+04   -0.81807E-05   -0.34136E-05  6903   0.769E-03    0.102E-02
RMM:   8    -0.116116163700E+04   -0.73245E-05   -0.19469E-05  6684   0.633E-03
  11 F= -.11611616E+04 E0= -.11611616E+04  d E =-.214633E-02  mag=     8.0000
