       N       E                     dE             d eps       ncg     rms          rms(c)
DAV:   1     0.120179568734E+05    0.12018E+05   -0.42335E+05 12320   0.132E+03
DAV:   2     0.685543730982E+03   -0.11332E+05   -0.10126E+05 12312   0.378E+02
DAV:   3    -0.135640724731E+04   -0.20420E+04   -0.19665E+04 13224   0.167E+02
DAV:   4    -0.149518130667E+04   -0.13877E+03   -0.13641E+03 16112   0.458E+01
DAV:   5    -0.150438481557E+04   -0.92035E+01   -0.91555E+01 22192   0.109E+01    0.180E+02
RMM:   6    -0.116558608789E+04    0.33880E+03   -0.16198E+03 12531   0.354E+01    0.119E+02
RMM:   7    -0.114932763543E+04    0.16258E+02   -0.61432E+01 12824   0.118E+01    0.710E+01
RMM:   8    -0.115232553742E+04   -0.29979E+01   -0.24955E+01 13925   0.585E+00    0.331E+01
RMM:   9    -0.115615804897E+04   -0.38325E+01   -0.69628E+00 13736   0.304E+00    0.134E+01
RMM:  10    -0.115765162633E+04   -0.14936E+01   -0.14092E+00 15545   0.124E+00    0.749E+00
RMM:  11    -0.115879633975E+04   -0.11447E+01   -0.93440E-01 15325   0.840E-01    0.449E+00
RMM:  12    -0.115976194640E+04   -0.96561E+00   -0.87497E-01 13893   0.856E-01    0.231E+00
RMM:  13    -0.115998509030E+04   -0.22314E+00   -0.26491E-01 14795   0.528E-01    0.159E+00
RMM:  14    -0.116003519125E+04   -0.50101E-01   -0.83069E-02 15779   0.268E-01    0.126E+00
RMM:  15    -0.116007600638E+04   -0.40815E-01   -0.62480E-02 14365   0.220E-01    0.807E-01
RMM:  16    -0.116011812215E+04   -0.42116E-01   -0.49368E-02 14210   0.214E-01    0.108E+00
RMM:  17    -0.116012411967E+04   -0.59975E-02   -0.87530E-03 15852   0.810E-02    0.104E+00
RMM:  18    -0.116012865962E+04   -0.45399E-02   -0.71322E-03 13827   0.680E-02    0.910E-01
RMM:  19    -0.116013802539E+04   -0.93658E-02   -0.10356E-02 13331   0.919E-02    0.788E-01
RMM:  20    -0.116015018370E+04   -0.12158E-01   -0.12066E-02 12882   0.109E-01    0.805E-01
RMM:  21    -0.116015350153E+04   -0.33178E-02   -0.59575E-03 13643   0.713E-02    0.681E-01
RMM:  22    -0.116016711946E+04   -0.13618E-01   -0.24046E-02 12784   0.171E-01    0.808E-01
RMM:  23    -0.116016529264E+04    0.18268E-02   -0.26120E-03 12373   0.526E-02    0.740E-01
RMM:  24    -0.116016236444E+04    0.29282E-02   -0.23441E-03 11422   0.488E-02    0.788E-01
RMM:  25    -0.116016784097E+04   -0.54765E-02   -0.41639E-03 11821   0.675E-02    0.884E-01
RMM:  26    -0.116015217844E+04    0.15663E-01   -0.79356E-02 12419   0.277E-01    0.868E-01
RMM:  27    -0.116014320465E+04    0.89738E-02   -0.45342E-02 13002   0.214E-01    0.142E+00
RMM:  28    -0.116015348121E+04   -0.10277E-01   -0.39812E-03 12600   0.662E-02    0.140E+00
RMM:  29    -0.116015491567E+04   -0.14345E-02   -0.57309E-04 10494   0.225E-02    0.145E+00
RMM:  30    -0.116015147491E+04    0.34408E-02   -0.94968E-04 10543   0.336E-02    0.143E+00
RMM:  31    -0.116015023000E+04    0.12449E-02   -0.56220E-04  9664   0.280E-02    0.135E+00
RMM:  32    -0.116014992934E+04    0.30066E-03   -0.14951E-03 10690   0.372E-02    0.125E+00
RMM:  33    -0.116014912017E+04    0.80917E-03   -0.18058E-04  8403   0.171E-02    0.118E+00
RMM:  34    -0.116013573231E+04    0.13388E-01   -0.90880E-03 12277   0.112E-01    0.167E+00
RMM:  35    -0.116013284912E+04    0.28832E-02   -0.14383E-02 12315   0.120E-01    0.789E-01
RMM:  36    -0.116012617461E+04    0.66745E-02   -0.75354E-03 12735   0.877E-02    0.829E-01
RMM:  37    -0.116013602020E+04   -0.98456E-02   -0.49312E-03 11892   0.844E-02    0.340E+00
RMM:  38    -0.116013028640E+04    0.57338E-02   -0.11847E-03 10836   0.440E-02    0.275E+00
RMM:  39    -0.116012954853E+04    0.73787E-03   -0.24481E-03 11301   0.530E-02    0.252E+00
RMM:  40    -0.116012197526E+04    0.75733E-02   -0.12012E-02 12602   0.109E-01
   1 F= -.11601220E+04 E0= -.11601102E+04  d E =-.116012E+04  mag=     8.2425
       N       E                     dE             d eps       ncg     rms          rms(c)
DAV:   1    -0.116013620163E+04   -0.66531E-02   -0.14922E+01 14368   0.446E+00    0.226E+00
RMM:   2    -0.116022680274E+04   -0.90601E-01   -0.72430E-01 12289   0.108E+00    0.457E+00
RMM:   3    -0.116021071495E+04    0.16088E-01   -0.96794E-02 12904   0.455E-01    0.439E+00
RMM:   4    -0.116021224052E+04   -0.15256E-02   -0.10584E-02 17200   0.107E-01    0.420E+00
RMM:   5    -0.116023281235E+04   -0.20572E-01   -0.13600E-02 12958   0.114E-01    0.422E+00
RMM:   6    -0.116021180608E+04    0.21006E-01   -0.13969E-02 12211   0.115E-01    0.418E+00
RMM:   7    -0.116029479886E+04   -0.82993E-01   -0.14066E-01 12567   0.378E-01    0.396E+00
RMM:   8    -0.116033643222E+04   -0.41633E-01   -0.88803E-02 12952   0.307E-01    0.358E+00
RMM:   9    -0.116034294010E+04   -0.65079E-02   -0.11665E-02 13501   0.989E-02    0.369E+00
RMM:  10    -0.116035346067E+04   -0.10521E-01   -0.65256E-03 11629   0.846E-02    0.357E+00
RMM:  11    -0.116034283687E+04    0.10624E-01   -0.13112E+00 12779   0.122E+00    0.158E+00
RMM:  12    -0.116037572303E+04   -0.32886E-01   -0.44714E-01 13489   0.681E-01    0.264E+00
RMM:  13    -0.116036883289E+04    0.68901E-02   -0.72137E-02 12775   0.290E-01    0.153E+00
RMM:  14    -0.116037513637E+04   -0.63035E-02   -0.13160E-01 12846   0.407E-01    0.453E-01
RMM:  15    -0.116037438298E+04    0.75339E-03   -0.19738E-02 12581   0.135E-01    0.230E-01
RMM:  16    -0.116037536962E+04   -0.98664E-03   -0.37272E-03 11238   0.616E-02    0.175E-01
RMM:  17    -0.116037595287E+04   -0.58325E-03   -0.98210E-04  9857   0.357E-02    0.783E-02
RMM:  18    -0.116037600727E+04   -0.54402E-04   -0.22874E-03 10441   0.537E-02    0.121E-01
RMM:  19    -0.116037612315E+04   -0.11587E-03   -0.66852E-04  8841   0.317E-02    0.341E-02
RMM:  20    -0.116037611981E+04    0.33402E-05   -0.14320E-04  7321   0.132E-02
   2 F= -.11603761E+04 E0= -.11603761E+04  d E =-.254145E+00  mag=     8.0049
       N       E                     dE             d eps       ncg     rms          rms(c)
DAV:   1    -0.116035769167E+04    0.18431E-01   -0.64386E-02 13256   0.266E-01    0.120E-01
RMM:   2    -0.116035786856E+04   -0.17689E-03   -0.20573E-03 11959   0.575E-02    0.117E-01
RMM:   3    -0.116035787206E+04   -0.34969E-05   -0.15065E-04  7461   0.216E-02    0.738E-02
RMM:   4    -0.116035789484E+04   -0.22779E-04   -0.61033E-05  7029   0.950E-03    0.609E-02
RMM:   5    -0.116035797505E+04   -0.80214E-04   -0.10574E-04  7045   0.101E-02    0.360E-02
RMM:   6    -0.116035801559E+04   -0.40533E-04   -0.38549E-05  6052   0.538E-03    0.287E-02
RMM:   7    -0.116035805913E+04   -0.43539E-04   -0.26525E-05  5727   0.531E-03    0.273E-02
RMM:   8    -0.116035811902E+04   -0.59897E-04   -0.36370E-05  5707   0.526E-03
   3 F= -.11603581E+04 E0= -.11603581E+04  d E =0.180008E-01  mag=     8.0004
       N       E                     dE             d eps       ncg     rms          rms(c)
DAV:   1    -0.116048484197E+04   -0.12678E+00   -0.85857E+00 13264   0.304E+00    0.132E+00
RMM:   2    -0.116050743852E+04   -0.22597E-01   -0.22938E-01 12362   0.611E-01    0.112E+00
RMM:   3    -0.116050747404E+04   -0.35519E-04   -0.16502E-02 12857   0.207E-01    0.734E-01
RMM:   4    -0.116050676116E+04    0.71288E-03   -0.39796E-03 12476   0.837E-02    0.470E-01
RMM:   5    -0.116050703635E+04   -0.27519E-03   -0.29134E-03 11868   0.568E-02    0.142E-01
RMM:   6    -0.116050693577E+04    0.10058E-03   -0.27629E-04  8819   0.229E-02    0.656E-02
RMM:   7    -0.116050694488E+04   -0.91152E-05   -0.95272E-05  7533   0.110E-02    0.523E-02
RMM:   8    -0.116050700304E+04   -0.58161E-04   -0.10464E-04  7261   0.121E-02
   4 F= -.11605070E+04 E0= -.11605070E+04  d E =-.148884E+00  mag=     8.0000
       N       E                     dE             d eps       ncg     rms          rms(c)
DAV:   1    -0.116062966382E+04   -0.12272E+00   -0.37284E+01 12664   0.657E+00    0.244E+00
RMM:   2    -0.116072211703E+04   -0.92453E-01   -0.10098E+00 12436   0.131E+00    0.200E+00
RMM:   3    -0.116072309218E+04   -0.97515E-03   -0.65544E-02 13147   0.428E-01    0.121E+00
RMM:   4    -0.116071775731E+04    0.53349E-02   -0.18723E-02 13333   0.167E-01    0.609E-01
RMM:   5    -0.116071784594E+04   -0.88630E-04   -0.92949E-03 12630   0.110E-01    0.195E-01
RMM:   6    -0.116071760164E+04    0.24430E-03   -0.82536E-04 11814   0.333E-02    0.116E-01
RMM:   7    -0.116071759164E+04    0.99968E-05   -0.46876E-04 10133   0.209E-02    0.571E-02
RMM:   8    -0.116071763810E+04   -0.46460E-04   -0.10622E-04  7847   0.162E-02
   5 F= -.11607176E+04 E0= -.11607176E+04  d E =-.210635E+00  mag=     8.0000
       N       E                     dE             d eps       ncg     rms          rms(c)
DAV:   1    -0.116071207888E+04    0.55128E-02   -0.29306E+01 12888   0.593E+00    0.197E+00
RMM:   2    -0.116078810887E+04   -0.76030E-01   -0.74552E-01 12512   0.113E+00    0.148E+00
RMM:   3    -0.116079050770E+04   -0.23988E-02   -0.46108E-02 13334   0.369E-01    0.886E-01
RMM:   4    -0.116078704538E+04    0.34623E-02   -0.12758E-02 13447   0.130E-01    0.407E-01
RMM:   5    -0.116078695437E+04    0.91010E-04   -0.49220E-03 12748   0.837E-02    0.156E-01
RMM:   6    -0.116078688294E+04    0.71433E-04   -0.48961E-04 10915   0.257E-02    0.821E-02
RMM:   7    -0.116078689789E+04   -0.14952E-04   -0.25195E-04  8697   0.174E-02    0.437E-02
RMM:   8    -0.116078694977E+04   -0.51882E-04   -0.11472E-04  7719   0.140E-02
   6 F= -.11607869E+04 E0= -.11607869E+04  d E =-.693117E-01  mag=     8.0000
       N       E                     dE             d eps       ncg     rms          rms(c)
DAV:   1    -0.116079462013E+04   -0.77222E-02   -0.19929E+00 13760   0.158E+00    0.397E-01
RMM:   2    -0.116079909313E+04   -0.44730E-02   -0.52747E-02 12783   0.295E-01    0.329E-01
RMM:   3    -0.116079903293E+04    0.60206E-04   -0.31926E-03 13203   0.947E-02    0.207E-01
RMM:   4    -0.116079877606E+04    0.25687E-03   -0.99615E-04 11722   0.361E-02    0.115E-01
RMM:   5    -0.116079874560E+04    0.30455E-04   -0.35327E-04  9757   0.243E-02    0.361E-02
RMM:   6    -0.116079876315E+04   -0.17545E-04   -0.53438E-05  7318   0.118E-02    0.267E-02
RMM:   7    -0.116079879063E+04   -0.27484E-04   -0.39551E-05  7135   0.782E-03    0.223E-02
RMM:   8    -0.116079882560E+04   -0.34973E-04   -0.34124E-05  7039   0.802E-03
   7 F= -.11607988E+04 E0= -.11607988E+04  d E =-.118758E-01  mag=     8.0000
       N       E                     dE             d eps       ncg     rms          rms(c)
DAV:   1    -0.116080094335E+04   -0.21527E-02   -0.71677E+00 12784   0.300E+00    0.688E-01
RMM:   2    -0.116081828145E+04   -0.17338E-01   -0.17187E-01 13197   0.523E-01    0.464E-01
RMM:   3    -0.116081843235E+04   -0.15091E-03   -0.82871E-03 13673   0.153E-01    0.282E-01
RMM:   4    -0.116081793935E+04    0.49301E-03   -0.22329E-03 13835   0.535E-02    0.137E-01
RMM:   5    -0.116081793630E+04    0.30485E-05   -0.70128E-04 11465   0.292E-02    0.418E-02
RMM:   6    -0.116081795775E+04   -0.21449E-04   -0.83340E-05  7438   0.142E-02    0.299E-02
RMM:   7    -0.116081800348E+04   -0.45736E-04   -0.75839E-05  7374   0.103E-02    0.235E-02
RMM:   8    -0.116081802695E+04   -0.23468E-04   -0.35840E-05  7145   0.863E-03
   8 F= -.11608180E+04 E0= -.11608180E+04  d E =-.192013E-01  mag=     8.0000
       N       E                     dE             d eps       ncg     rms          rms(c)
DAV:   1    -0.116081048476E+04    0.75187E-02   -0.11647E+01 12704   0.383E+00    0.839E-01
RMM:   2    -0.116083861926E+04   -0.28135E-01   -0.27823E-01 13247   0.661E-01    0.546E-01
RMM:   3    -0.116083884866E+04   -0.22939E-03   -0.13416E-02 13821   0.193E-01    0.333E-01
RMM:   4    -0.116083814902E+04    0.69964E-03   -0.33211E-03 14984   0.646E-02    0.167E-01
RMM:   5    -0.116083811783E+04    0.31195E-04   -0.11291E-03 12788   0.343E-02    0.503E-02
RMM:   6    -0.116083814558E+04   -0.27750E-04   -0.13952E-04  7862   0.163E-02    0.329E-02
RMM:   7    -0.116083819230E+04   -0.46727E-04   -0.97119E-05  7521   0.115E-02    0.244E-02
RMM:   8    -0.116083822539E+04   -0.33091E-04   -0.57603E-05  7272   0.101E-02
   9 F= -.11608382E+04 E0= -.11608382E+04  d E =-.201984E-01  mag=     8.0000
       N       E                     dE             d eps       ncg     rms          rms(c)
DAV:   1    -0.116082701620E+04    0.11176E-01   -0.12061E+01 12704   0.391E+00    0.791E-01
RMM:   2    -0.116085564427E+04   -0.28628E-01   -0.29041E-01 13226   0.674E-01    0.513E-01
RMM:   3    -0.116085566223E+04   -0.17964E-04   -0.13625E-02 13762   0.198E-01    0.322E-01
RMM:   4    -0.116085497384E+04    0.68839E-03   -0.35163E-03 15162   0.663E-02    0.162E-01
RMM:   5    -0.116085497004E+04    0.38051E-05   -0.11104E-03 13051   0.334E-02    0.452E-02
RMM:   6    -0.116085499499E+04   -0.24953E-04   -0.15099E-04  8038   0.164E-02    0.316E-02
RMM:   7    -0.116085503889E+04   -0.43898E-04   -0.10007E-04  7562   0.114E-02    0.235E-02
RMM:   8    -0.116085506969E+04   -0.30808E-04   -0.60144E-05  7339   0.102E-02
  10 F= -.11608551E+04 E0= -.11608551E+04  d E =-.168443E-01  mag=     8.0000
       N       E                     dE             d eps       ncg     rms          rms(c)
DAV:   1    -0.116084795412E+04    0.70848E-02   -0.80152E+00 12768   0.320E+00    0.634E-01
RMM:   2    -0.116086687402E+04   -0.18920E-01   -0.19249E-01 13237   0.548E-01    0.406E-01
RMM:   3    -0.116086687954E+04   -0.55184E-05   -0.89297E-03 13740   0.161E-01    0.256E-01
RMM:   4    -0.116086645108E+04    0.42846E-03   -0.23129E-03 14582   0.544E-02    0.126E-01
RMM:   5    -0.116086647774E+04   -0.26661E-04   -0.70659E-04 11844   0.278E-02    0.356E-02
RMM:   6    -0.116086650040E+04   -0.22662E-04   -0.96400E-05  7581   0.146E-02    0.260E-02
RMM:   7    -0.116086654173E+04   -0.41329E-04   -0.87731E-05  7524   0.106E-02    0.202E-02
RMM:   8    -0.116086656778E+04   -0.26043E-04   -0.45085E-05  7205   0.935E-03
  11 F= -.11608666E+04 E0= -.11608666E+04  d E =-.114981E-01  mag=     8.0000
       N       E                     dE             d eps       ncg     rms          rms(c)
DAV:   1    -0.116086420917E+04    0.23326E-02   -0.44625E+00 12872   0.240E+00    0.450E-01
RMM:   2    -0.116087460451E+04   -0.10395E-01   -0.10776E-01 13229   0.409E-01    0.290E-01
RMM:   3    -0.116087452923E+04    0.75278E-04   -0.49035E-03 13524   0.121E-01    0.186E-01
RMM:   4    -0.116087429066E+04    0.23857E-03   -0.12826E-03 13445   0.418E-02    0.914E-02
RMM:   5    -0.116087431861E+04   -0.27951E-04   -0.36337E-04  9744   0.224E-02    0.281E-02
RMM:   6    -0.116087433673E+04   -0.18125E-04   -0.57187E-05  7314   0.130E-02    0.213E-02
RMM:   7    -0.116087436686E+04   -0.30126E-04   -0.69655E-05  7282   0.987E-03    0.171E-02
RMM:   8    -0.116087439117E+04   -0.24305E-04   -0.38923E-05  7019   0.840E-03
  12 F= -.11608744E+04 E0= -.11608744E+04  d E =-.782339E-02  mag=     8.0000
       N       E                     dE             d eps       ncg     rms          rms(c)
DAV:   1    -0.116087060222E+04    0.37646E-02   -0.46758E+00 12720   0.244E+00    0.462E-01
RMM:   2    -0.116088147874E+04   -0.10877E-01   -0.11222E-01 13243   0.417E-01    0.296E-01
RMM:   3    -0.116088141529E+04    0.63451E-04   -0.51287E-03 13462   0.122E-01    0.188E-01
RMM:   4    -0.116088117369E+04    0.24160E-03   -0.12358E-03 13418   0.412E-02    0.980E-02
RMM:   5    -0.116088117776E+04   -0.40680E-05   -0.43586E-04 10226   0.236E-02    0.291E-02
RMM:   6    -0.116088119240E+04   -0.14641E-04   -0.58655E-05  7319   0.133E-02    0.204E-02
RMM:   7    -0.116088121693E+04   -0.24531E-04   -0.63265E-05  7247   0.928E-03    0.159E-02
RMM:   8    -0.116088123563E+04   -0.18692E-04   -0.34743E-05  6999   0.836E-03
  13 F= -.11608812E+04 E0= -.11608812E+04  d E =-.684446E-02  mag=     8.0000
       N       E                     dE             d eps       ncg     rms          rms(c)
DAV:   1    -0.116087500511E+04    0.62118E-02   -0.56546E+00 12704   0.269E+00    0.495E-01
RMM:   2    -0.116088812745E+04   -0.13122E-01   -0.13522E-01 13227   0.457E-01    0.310E-01
RMM:   3    -0.116088803697E+04    0.90474E-04   -0.61400E-03 13568   0.135E-01    0.198E-01
RMM:   4    -0.116088774448E+04    0.29250E-03   -0.15631E-03 13818   0.456E-02    0.974E-02
RMM:   5    -0.116088776222E+04   -0.17739E-04   -0.43245E-04 10269   0.231E-02    0.280E-02
RMM:   6    -0.116088777692E+04   -0.14702E-04   -0.61935E-05  7349   0.134E-02    0.201E-02
RMM:   7    -0.116088780203E+04   -0.25115E-04   -0.71636E-05  7330   0.978E-03    0.149E-02
RMM:   8    -0.116088781860E+04   -0.16566E-04   -0.34253E-05  7060   0.836E-03
  14 F= -.11608878E+04 E0= -.11608878E+04  d E =-.658297E-02  mag=     8.0000
       N       E                     dE             d eps       ncg     rms          rms(c)
DAV:   1    -0.116088161635E+04    0.61857E-02   -0.52100E+00 12688   0.258E+00    0.483E-01
RMM:   2    -0.116089379198E+04   -0.12176E-01   -0.12430E-01 13228   0.438E-01    0.299E-01
RMM:   3    -0.116089374523E+04    0.46748E-04   -0.56529E-03 13513   0.130E-01    0.189E-01
RMM:   4    -0.116089349137E+04    0.25386E-03   -0.13748E-03 13662   0.434E-02    0.947E-02
RMM:   5    -0.116089350641E+04   -0.15043E-04   -0.42627E-04 10105   0.232E-02    0.267E-02
RMM:   6    -0.116089352127E+04   -0.14854E-04   -0.59419E-05  7331   0.135E-02    0.192E-02
RMM:   7    -0.116089354504E+04   -0.23767E-04   -0.69221E-05  7295   0.955E-03    0.149E-02
RMM:   8    -0.116089356329E+04   -0.18258E-04   -0.36285E-05  7029   0.852E-03
  15 F= -.11608936E+04 E0= -.11608936E+04  d E =-.574470E-02  mag=     8.0000
       N       E                     dE             d eps       ncg     rms          rms(c)
DAV:   1    -0.116088978185E+04    0.37632E-02   -0.34972E+00 12640   0.211E+00    0.385E-01
RMM:   2    -0.116089790017E+04   -0.81183E-02   -0.83566E-02 13207   0.359E-01    0.240E-01
RMM:   3    -0.116089785427E+04    0.45905E-04   -0.38377E-03 13371   0.107E-01    0.154E-01
RMM:   4    -0.116089768782E+04    0.16645E-03   -0.92049E-04 12582   0.359E-02    0.770E-02
RMM:   5    -0.116089770812E+04   -0.20304E-04   -0.27335E-04  8781   0.204E-02    0.233E-02
RMM:   6    -0.116089772450E+04   -0.16378E-04   -0.54369E-05  7221   0.122E-02    0.182E-02
RMM:   7    -0.116089774625E+04   -0.21756E-04   -0.53188E-05  7114   0.920E-03    0.166E-02
RMM:   8    -0.116089776646E+04   -0.20205E-04   -0.34876E-05  6946   0.780E-03
  16 F= -.11608978E+04 E0= -.11608978E+04  d E =-.420317E-02  mag=     8.0000
       N       E                     dE             d eps       ncg     rms          rms(c)
DAV:   1    -0.116089723981E+04    0.50644E-03   -0.12922E+00 12832   0.129E+00    0.233E-01
RMM:   2    -0.116090023995E+04   -0.30001E-02   -0.31079E-02 13168   0.219E-01    0.144E-01
RMM:   3    -0.116090022155E+04    0.18403E-04   -0.14381E-03 12198   0.657E-02    0.927E-02
RMM:   4    -0.116090016898E+04    0.52571E-04   -0.31918E-04  9055   0.231E-02    0.479E-02
RMM:   5    -0.116090019304E+04   -0.24057E-04   -0.11816E-04  7280   0.149E-02    0.184E-02
RMM:   6    -0.116090020894E+04   -0.15902E-04   -0.38490E-05  7043   0.984E-03    0.163E-02
RMM:   7    -0.116090022569E+04   -0.16747E-04   -0.28184E-05  6880   0.687E-03    0.161E-02
RMM:   8    -0.116090024509E+04   -0.19401E-04   -0.21024E-05  6713   0.627E-03
  17 F= -.11609002E+04 E0= -.11609002E+04  d E =-.247863E-02  mag=     8.0000
       N       E                     dE             d eps       ncg     rms          rms(c)
DAV:   1    -0.116089760182E+04    0.26239E-02   -0.24488E+00 12728   0.177E+00    0.323E-01
RMM:   2    -0.116090328062E+04   -0.56788E-02   -0.58457E-02 13179   0.300E-01    0.198E-01
RMM:   3    -0.116090325466E+04    0.25959E-04   -0.26528E-03 13112   0.898E-02    0.126E-01
RMM:   4    -0.116090314956E+04    0.10510E-03   -0.61897E-04 11249   0.303E-02    0.642E-02
RMM:   5    -0.116090317455E+04   -0.24992E-04   -0.19087E-04  7708   0.184E-02    0.222E-02
RMM:   6    -0.116090319387E+04   -0.19319E-04   -0.49965E-05  7142   0.113E-02    0.188E-02
RMM:   7    -0.116090321506E+04   -0.21192E-04   -0.39026E-05  6995   0.834E-03    0.179E-02
RMM:   8    -0.116090324323E+04   -0.28173E-04   -0.32265E-05  6891   0.740E-03
  18 F= -.11609032E+04 E0= -.11609032E+04  d E =-.299815E-02  mag=     8.0000
       N       E                     dE             d eps       ncg     rms          rms(c)
DAV:   1    -0.116090162289E+04    0.15922E-02   -0.17029E+00 12768   0.149E+00    0.273E-01
RMM:   2    -0.116090564192E+04   -0.40190E-02   -0.41051E-02 13191   0.252E-01    0.166E-01
RMM:   3    -0.116090563531E+04    0.66085E-05   -0.18758E-03 12660   0.755E-02    0.106E-01
RMM:   4    -0.116090557452E+04    0.60797E-04   -0.41252E-04  9879   0.259E-02    0.560E-02
RMM:   5    -0.116090560743E+04   -0.32912E-04   -0.15869E-04  7393   0.168E-02    0.217E-02
RMM:   6    -0.116090562881E+04   -0.21382E-04   -0.47433E-05  7099   0.108E-02    0.195E-02
RMM:   7    -0.116090565035E+04   -0.21542E-04   -0.33645E-05  6911   0.769E-03    0.192E-02
RMM:   8    -0.116090567935E+04   -0.29000E-04   -0.27947E-05  6799   0.687E-03
  19 F= -.11609057E+04 E0= -.11609057E+04  d E =-.243612E-02  mag=     8.0000
       N       E                     dE             d eps       ncg     rms          rms(c)
DAV:   1    -0.116090402795E+04    0.16224E-02   -0.15257E+00 12768   0.140E+00    0.258E-01
RMM:   2    -0.116090762114E+04   -0.35932E-02   -0.36524E-02 13163   0.237E-01    0.156E-01
RMM:   3    -0.116090762134E+04   -0.19719E-06   -0.16710E-03 12440   0.713E-02    0.996E-02
RMM:   4    -0.116090757313E+04    0.48213E-04   -0.36303E-04  9400   0.246E-02    0.527E-02
RMM:   5    -0.116090761205E+04   -0.38922E-04   -0.15051E-04  7360   0.161E-02    0.225E-02
RMM:   6    -0.116090763564E+04   -0.23590E-04   -0.45872E-05  7067   0.105E-02    0.205E-02
RMM:   7    -0.116090766053E+04   -0.24886E-04   -0.32935E-05  6896   0.743E-03    0.204E-02
RMM:   8    -0.116090769063E+04   -0.30103E-04   -0.26112E-05  6693   0.655E-03
  20 F= -.11609077E+04 E0= -.11609077E+04  d E =-.201128E-02  mag=     8.0000
       N       E                     dE             d eps       ncg     rms          rms(c)
DAV:   1    -0.116090675088E+04    0.90964E-03   -0.11470E+00 12688   0.122E+00    0.225E-01
RMM:   2    -0.116090947957E+04   -0.27287E-02   -0.27657E-02 13152   0.207E-01    0.136E-01
RMM:   3    -0.116090948690E+04   -0.73262E-05   -0.12607E-03 11947   0.628E-02    0.873E-02
RMM:   4    -0.116090946442E+04    0.22480E-04   -0.27083E-04  8395   0.220E-02    0.476E-02
RMM:   5    -0.116090951141E+04   -0.46992E-04   -0.13314E-04  7264   0.146E-02    0.232E-02
RMM:   6    -0.116090953643E+04   -0.25021E-04   -0.41591E-05  7032   0.982E-03    0.216E-02
RMM:   7    -0.116090956225E+04   -0.25820E-04   -0.29276E-05  6867   0.675E-03    0.218E-02
RMM:   8    -0.116090958920E+04   -0.26949E-04   -0.20597E-05  6502   0.597E-03
  21 F= -.11609096E+04 E0= -.11609096E+04  d E =-.189857E-02  mag=     8.0000
       N       E                     dE             d eps       ncg     rms          rms(c)
DAV:   1    -0.116090842235E+04    0.11399E-02   -0.11466E+00 12672   0.122E+00    0.227E-01
RMM:   2    -0.116091116390E+04   -0.27416E-02   -0.27471E-02 13144   0.205E-01    0.136E-01
RMM:   3    -0.116091118030E+04   -0.16397E-04   -0.12468E-03 11864   0.622E-02    0.871E-02
RMM:   4    -0.116091116406E+04    0.16243E-04   -0.26359E-04  8314   0.218E-02    0.479E-02
RMM:   5    -0.116091121855E+04   -0.54490E-04   -0.13916E-04  7280   0.146E-02    0.242E-02
RMM:   6    -0.116091124650E+04   -0.27955E-04   -0.42420E-05  7010   0.978E-03    0.228E-02
RMM:   7    -0.116091127666E+04   -0.30162E-04   -0.30647E-05  6855   0.676E-03    0.230E-02
RMM:   8    -0.116091130330E+04   -0.26632E-04   -0.19757E-05  6367   0.579E-03
  22 F= -.11609113E+04 E0= -.11609113E+04  d E =-.171410E-02  mag=     8.0000
       N       E                     dE             d eps       ncg     rms          rms(c)
DAV:   1    -0.116091070833E+04    0.56833E-03   -0.74709E-01 12752   0.983E-01    0.185E-01
RMM:   2    -0.116091251603E+04   -0.18077E-02   -0.17949E-02 13105   0.166E-01    0.111E-01
RMM:   3    -0.116091253797E+04   -0.21934E-04   -0.80675E-04 10666   0.506E-02    0.723E-02
RMM:   4    -0.116091254823E+04   -0.10264E-04   -0.17974E-04  7494   0.183E-02    0.420E-02
RMM:   5    -0.116091261093E+04   -0.62692E-04   -0.10578E-04  7184   0.126E-02    0.250E-02
RMM:   6    -0.116091264355E+04   -0.32621E-04   -0.37431E-05  6961   0.846E-03    0.241E-02
RMM:   7    -0.116091267912E+04   -0.35577E-04   -0.28738E-05  6724   0.626E-03    0.238E-02
RMM:   8    -0.116091272269E+04   -0.43569E-04   -0.27131E-05  6350   0.593E-03
  23 F= -.11609127E+04 E0= -.11609127E+04  d E =-.141940E-02  mag=     8.0000
       N       E                     dE             d eps       ncg     rms          rms(c)
DAV:   1    -0.116091299470E+04   -0.31557E-03   -0.11330E-01 12784   0.388E-01    0.800E-02
RMM:   2    -0.116091330597E+04   -0.31127E-03   -0.28356E-03 12862   0.664E-02    0.534E-02
RMM:   3    -0.116091332999E+04   -0.24027E-04   -0.11426E-04  7199   0.214E-02    0.380E-02
RMM:   4    -0.116091337862E+04   -0.48628E-04   -0.65828E-05  6994   0.939E-03    0.279E-02
RMM:   5    -0.116091343796E+04   -0.59343E-04   -0.45451E-05  6601   0.662E-03    0.248E-02
RMM:   6    -0.116091346419E+04   -0.26225E-04   -0.17182E-05  5991   0.438E-03    0.245E-02
RMM:   7    -0.116091346023E+04    0.39582E-05   -0.40481E-06  4722   0.341E-03    0.243E-02
RMM:   8    -0.116091346005E+04    0.17628E-06   -0.22040E-06  3868   0.250E-03
  24 F= -.11609135E+04 E0= -.11609135E+04  d E =-.737361E-03  mag=     8.0000
       N       E                     dE             d eps       ncg     rms          rms(c)
DAV:   1    -0.116091264432E+04    0.81591E-03   -0.82042E-01 12728   0.103E+00    0.195E-01
RMM:   2    -0.116091463305E+04   -0.19887E-02   -0.19652E-02 13153   0.174E-01    0.118E-01
RMM:   3    -0.116091466427E+04   -0.31223E-04   -0.87889E-04 10843   0.530E-02    0.759E-02
RMM:   4    -0.116091467910E+04   -0.14828E-04   -0.19339E-04  7532   0.192E-02    0.444E-02
RMM:   5    -0.116091475484E+04   -0.75737E-04   -0.11749E-04  7184   0.132E-02    0.270E-02
RMM:   6    -0.116091478942E+04   -0.34580E-04   -0.37979E-05  6919   0.863E-03    0.263E-02
RMM:   7    -0.116091481691E+04   -0.27495E-04   -0.23731E-05  6702   0.591E-03    0.263E-02
RMM:   8    -0.116091483358E+04   -0.16667E-04   -0.12346E-05  5923   0.490E-03
  25 F= -.11609148E+04 E0= -.11609148E+04  d E =-.137353E-02  mag=     8.0000
       N       E                     dE             d eps       ncg     rms          rms(c)
DAV:   1    -0.116091457219E+04    0.24472E-03   -0.43770E-01 12608   0.754E-01    0.142E-01
RMM:   2    -0.116091565780E+04   -0.10856E-02   -0.10599E-02 13018   0.127E-01    0.867E-02
RMM:   3    -0.116091568870E+04   -0.30893E-04   -0.46018E-04  9037   0.394E-02    0.586E-02
RMM:   4    -0.116091573408E+04   -0.45382E-04   -0.12003E-04  7212   0.150E-02    0.375E-02
RMM:   5    -0.116091581504E+04   -0.80961E-04   -0.84038E-05  7089   0.107E-02    0.279E-02
RMM:   6    -0.116091585362E+04   -0.38581E-04   -0.32783E-05  6830   0.702E-03    0.276E-02
RMM:   7    -0.116091588453E+04   -0.30911E-04   -0.20132E-05  6206   0.555E-03    0.272E-02
RMM:   8    -0.116091590267E+04   -0.18140E-04   -0.11262E-05  5436   0.415E-03
  26 F= -.11609159E+04 E0= -.11609159E+04  d E =-.106909E-02  mag=     8.0000
