       N       E                     dE             d eps       ncg     rms          rms(c)
DAV:   1    -0.116086770279E+04   -0.11609E+04   -0.36140E-06  7520   0.296E-03    0.264E-03
RMM:   2    -0.116086770316E+04   -0.37084E-06   -0.11950E-06  3417   0.237E-03    0.228E-03
RMM:   3    -0.116086770329E+04   -0.12877E-06   -0.21822E-07  1423   0.168E-03    0.175E-03
RMM:   4    -0.116086770333E+04   -0.44965E-07   -0.11940E-07  1145   0.167E-03    0.165E-03
RMM:   5    -0.116086770340E+04   -0.73458E-07   -0.80407E-08   999   0.165E-03    0.184E-03
RMM:   6    -0.116086770373E+04   -0.32538E-06   -0.32276E-07  1257   0.179E-03    0.187E-03
RMM:   7    -0.116086770413E+04   -0.39821E-06   -0.62702E-07  1660   0.187E-03    0.222E-03
RMM:   8    -0.116086770454E+04   -0.40863E-06   -0.70625E-07  1797   0.189E-03
   1 F= -.11608677E+04 E0= -.11608677E+04  d E =-.116087E+04  mag=    -8.0000
       N       E                     dE             d eps       ncg     rms          rms(c)
DAV:   1    -0.116086797556E+04   -0.27143E-03   -0.18455E-01 12448   0.490E-01    0.988E-02
RMM:   2    -0.116086832560E+04   -0.35004E-03   -0.47028E-03 12372   0.843E-02    0.719E-02
RMM:   3    -0.116086829799E+04    0.27616E-04   -0.20936E-04  7816   0.301E-02    0.454E-02
RMM:   4    -0.116086827446E+04    0.23525E-04   -0.96496E-05  7087   0.120E-02    0.237E-02
RMM:   5    -0.116086827270E+04    0.17593E-05   -0.21557E-05  6787   0.686E-03    0.109E-02
RMM:   6    -0.116086827376E+04   -0.10537E-05   -0.92853E-06  6370   0.451E-03    0.878E-03
RMM:   7    -0.116086827439E+04   -0.63583E-06   -0.45953E-06  5216   0.339E-03    0.607E-03
RMM:   8    -0.116086827509E+04   -0.69622E-06   -0.31110E-06  4577   0.287E-03
   2 F= -.11608683E+04 E0= -.11608683E+04  d E =-.570551E-03  mag=    -8.0000
       N       E                     dE             d eps       ncg     rms          rms(c)
DAV:   1    -0.116086878351E+04   -0.50912E-03   -0.79206E-02 12232   0.321E-01    0.726E-02
RMM:   2    -0.116086889960E+04   -0.11609E-03   -0.22498E-03 12109   0.585E-02    0.621E-02
RMM:   3    -0.116086887699E+04    0.22610E-04   -0.91893E-05  7079   0.198E-02    0.404E-02
RMM:   4    -0.116086885779E+04    0.19207E-04   -0.72368E-05  6997   0.964E-03    0.202E-02
RMM:   5    -0.116086885504E+04    0.27500E-05   -0.14732E-05  6411   0.571E-03    0.109E-02
RMM:   6    -0.116086885569E+04   -0.65034E-06   -0.63097E-06  5645   0.350E-03    0.890E-03
RMM:   7    -0.116086885609E+04   -0.40774E-06   -0.28234E-06  4191   0.294E-03    0.624E-03
RMM:   8    -0.116086885673E+04   -0.63449E-06   -0.21438E-06  3700   0.243E-03
   3 F= -.11608689E+04 E0= -.11608689E+04  d E =-.581641E-03  mag=    -8.0000
       N       E                     dE             d eps       ncg     rms          rms(c)
DAV:   1    -0.116086916749E+04   -0.31140E-03   -0.15164E-01 12352   0.445E-01    0.791E-02
RMM:   2    -0.116086949982E+04   -0.33233E-03   -0.37146E-03 12541   0.748E-02    0.562E-02
RMM:   3    -0.116086949064E+04    0.91812E-05   -0.15099E-04  7359   0.251E-02    0.357E-02
RMM:   4    -0.116086948355E+04    0.70912E-05   -0.51349E-05  6895   0.927E-03    0.201E-02
RMM:   5    -0.116086948333E+04    0.21893E-06   -0.14001E-05  6419   0.557E-03    0.938E-03
RMM:   6    -0.116086948422E+04   -0.89430E-06   -0.62567E-06  5735   0.390E-03    0.592E-03
RMM:   7    -0.116086948476E+04   -0.53637E-06   -0.32479E-06  4378   0.302E-03    0.432E-03
RMM:   8    -0.116086948529E+04   -0.53353E-06   -0.20549E-06  3740   0.262E-03
   4 F= -.11608695E+04 E0= -.11608695E+04  d E =-.628561E-03  mag=    -8.0000
