       N       E                     dE             d eps       ncg     rms          rms(c)
DAV:   1    -0.115902792571E+04   -0.11590E+04   -0.16201E-05  7720   0.135E-02    0.230E-02
RMM:   2    -0.115902792888E+04   -0.31738E-05   -0.19284E-05  6544   0.647E-03    0.356E-02
RMM:   3    -0.115902793036E+04   -0.14808E-05   -0.71296E-06  5712   0.408E-03    0.722E-03
RMM:   4    -0.115902793246E+04   -0.20942E-05   -0.44417E-06  4805   0.316E-03    0.852E-03
RMM:   5    -0.115902793422E+04   -0.17646E-05   -0.32803E-06  4309   0.303E-03    0.892E-03
RMM:   6    -0.115902793599E+04   -0.17645E-05   -0.21617E-06  3858   0.253E-03    0.589E-03
RMM:   7    -0.115902793847E+04   -0.24873E-05   -0.21738E-06  3889   0.254E-03    0.485E-03
RMM:   8    -0.115902794269E+04   -0.42181E-05   -0.56786E-06  4905   0.315E-03
   1 F= -.11590279E+04 E0= -.11590279E+04  d E =-.115903E+04  mag=    12.0000
       N       E                     dE             d eps       ncg     rms          rms(c)
DAV:   1    -0.115902826515E+04   -0.32668E-03   -0.25294E-01 12856   0.589E-01    0.172E-01
RMM:   2    -0.115902870637E+04   -0.44122E-03   -0.79057E-03 12280   0.115E-01    0.158E-01
RMM:   3    -0.115902865507E+04    0.51297E-04   -0.31712E-04  9564   0.322E-02    0.101E-01
RMM:   4    -0.115902858417E+04    0.70900E-04   -0.20539E-04  7866   0.172E-02    0.627E-02
RMM:   5    -0.115902857287E+04    0.11304E-04   -0.56098E-05  7178   0.111E-02    0.540E-02
RMM:   6    -0.115902857442E+04   -0.15495E-05   -0.24869E-05  6909   0.672E-03    0.173E-02
RMM:   7    -0.115902857615E+04   -0.17340E-05   -0.92873E-06  6268   0.477E-03    0.171E-02
RMM:   8    -0.115902857811E+04   -0.19521E-05   -0.65405E-06  5964   0.357E-03
   2 F= -.11590286E+04 E0= -.11590286E+04  d E =-.635414E-03  mag=    12.0000
       N       E                     dE             d eps       ncg     rms          rms(c)
DAV:   1    -0.115902904858E+04   -0.47243E-03   -0.59461E-02 12352   0.284E-01    0.802E-02
RMM:   2    -0.115902911076E+04   -0.62177E-04   -0.20154E-03 12116   0.581E-02    0.842E-02
RMM:   3    -0.115902908983E+04    0.20929E-04   -0.70762E-05  7019   0.156E-02    0.568E-02
RMM:   4    -0.115902906850E+04    0.21329E-04   -0.62194E-05  7022   0.963E-03    0.339E-02
RMM:   5    -0.115902906310E+04    0.53954E-05   -0.19222E-05  6375   0.632E-03    0.286E-02
RMM:   6    -0.115902906367E+04   -0.57237E-06   -0.78137E-06  5638   0.385E-03    0.105E-02
RMM:   7    -0.115902906421E+04   -0.54041E-06   -0.28164E-06  4319   0.293E-03    0.904E-03
RMM:   8    -0.115902906493E+04   -0.71603E-06   -0.19134E-06  3901   0.239E-03
   3 F= -.11590291E+04 E0= -.11590291E+04  d E =-.486826E-03  mag=    12.0000
