       N       E                     dE             d eps       ncg     rms          rms(c)
DAV:   1    -0.115722387362E+04   -0.11572E+04   -0.14859E-05  7568   0.106E-02    0.198E-02
RMM:   2    -0.115722387380E+04   -0.18089E-06   -0.13702E-05  6435   0.674E-03    0.348E-02
RMM:   3    -0.115722387446E+04   -0.65558E-06   -0.77334E-06  5443   0.346E-03    0.299E-03
RMM:   4    -0.115722387480E+04   -0.34869E-06   -0.37542E-06  4543   0.338E-03    0.758E-03
RMM:   5    -0.115722387503E+04   -0.22973E-06   -0.24713E-06  3362   0.247E-03    0.352E-03
RMM:   6    -0.115722387520E+04   -0.16327E-06   -0.13146E-06  2693   0.245E-03    0.141E-03
RMM:   7    -0.115722387536E+04   -0.15918E-06   -0.84557E-07  2221   0.205E-03    0.302E-03
RMM:   8    -0.115722387546E+04   -0.10054E-06   -0.49747E-07  1918   0.208E-03
   1 F= -.11572239E+04 E0= -.11572239E+04  d E =-.115722E+04  mag=    14.0000
       N       E                     dE             d eps       ncg     rms          rms(c)
DAV:   1    -0.115722405243E+04   -0.17707E-03   -0.32778E-01 12736   0.667E-01    0.201E-01
RMM:   2    -0.115722475483E+04   -0.70240E-03   -0.10238E-02 12296   0.131E-01    0.207E-01
RMM:   3    -0.115722470077E+04    0.54055E-04   -0.46395E-04 10416   0.411E-02    0.144E-01
RMM:   4    -0.115722463142E+04    0.69349E-04   -0.24242E-04  8687   0.186E-02    0.788E-02
RMM:   5    -0.115722460764E+04    0.23778E-04   -0.71472E-05  7523   0.122E-02    0.343E-02
RMM:   6    -0.115722460866E+04   -0.10204E-05   -0.17957E-05  6903   0.679E-03    0.155E-02
RMM:   7    -0.115722460910E+04   -0.43916E-06   -0.86369E-06  6273   0.440E-03    0.110E-02
RMM:   8    -0.115722460955E+04   -0.44997E-06   -0.48076E-06  6032   0.355E-03
   2 F= -.11572246E+04 E0= -.11572246E+04  d E =-.734097E-03  mag=    14.0000
       N       E                     dE             d eps       ncg     rms          rms(c)
DAV:   1    -0.115722506053E+04   -0.45142E-03   -0.77635E-02 12224   0.322E-01    0.107E-01
RMM:   2    -0.115722519641E+04   -0.13588E-03   -0.27080E-03 12116   0.667E-02    0.123E-01
RMM:   3    -0.115722517101E+04    0.25405E-04   -0.98784E-05  7257   0.199E-02    0.928E-02
RMM:   4    -0.115722514906E+04    0.21948E-04   -0.66322E-05  7075   0.105E-02    0.562E-02
RMM:   5    -0.115722514001E+04    0.90463E-05   -0.35042E-05  6706   0.819E-03    0.345E-02
RMM:   6    -0.115722514046E+04   -0.44746E-06   -0.91169E-06  5880   0.509E-03    0.118E-02
RMM:   7    -0.115722514046E+04    0.11787E-08   -0.37004E-06  4659   0.300E-03    0.929E-03
RMM:   8    -0.115722514057E+04   -0.10937E-06   -0.17908E-06  4017   0.260E-03
   3 F= -.11572251E+04 E0= -.11572251E+04  d E =-.531013E-03  mag=    14.0000
