       N       E                     dE             d eps       ncg     rms          rms(c)
DAV:   1    -0.116237374713E+04   -0.11624E+04   -0.17404E-06  6960   0.173E-03    0.162E-03
RMM:   2    -0.116237374709E+04    0.34139E-07   -0.92002E-09  1154   0.114E-03    0.103E-03
RMM:   3    -0.116237374708E+04    0.13402E-07   -0.35276E-10   839   0.111E-03    0.592E-04
RMM:   4    -0.116237374707E+04    0.12020E-07    0.00000E+00   638   0.111E-03    0.228E-04
RMM:   5    -0.116237374706E+04    0.69413E-08    0.00000E+00   516   0.112E-03    0.663E-05
RMM:   6    -0.116237374706E+04   -0.14552E-10    0.00000E+00   445   0.112E-03    0.417E-05
RMM:   7    -0.116237374706E+04    0.20373E-09    0.00000E+00   422   0.112E-03    0.330E-05
RMM:   8    -0.116237374706E+04    0.00000E+00    0.00000E+00   401   0.112E-03
   1 F= -.11623737E+04 E0= -.11623725E+04  d E =-.116237E+04  mag=     5.9814
       N       E                     dE             d eps       ncg     rms          rms(c)
DAV:   1    -0.116237360441E+04    0.14265E-03   -0.10291E-01 12224   0.365E-01    0.741E-02
RMM:   2    -0.116237380364E+04   -0.19922E-03   -0.26013E-03 12295   0.641E-02    0.527E-02
RMM:   3    -0.116237378863E+04    0.15006E-04   -0.10852E-04  6891   0.213E-02    0.337E-02
RMM:   4    -0.116237377870E+04    0.99276E-05   -0.51704E-05  6769   0.895E-03    0.202E-02
RMM:   5    -0.116237377721E+04    0.14900E-05   -0.12225E-05  6222   0.532E-03    0.103E-02
RMM:   6    -0.116237377775E+04   -0.53892E-06   -0.46587E-06  5220   0.321E-03    0.632E-03
RMM:   7    -0.116237377804E+04   -0.29072E-06   -0.18521E-06  3527   0.271E-03    0.386E-03
RMM:   8    -0.116237377827E+04   -0.23004E-06   -0.70433E-07  2463   0.211E-03
   2 F= -.11623738E+04 E0= -.11623726E+04  d E =-.312109E-04  mag=     5.9813
       N       E                     dE             d eps       ncg     rms          rms(c)
DAV:   1    -0.116237364998E+04    0.12806E-03   -0.55909E-02 12096   0.264E-01    0.635E-02
RMM:   2    -0.116237372736E+04   -0.77380E-04   -0.15633E-03 12148   0.491E-02    0.498E-02
RMM:   3    -0.116237370793E+04    0.19433E-04   -0.72418E-05  7040   0.168E-02    0.315E-02
RMM:   4    -0.116237369439E+04    0.13539E-04   -0.53572E-05  6913   0.860E-03    0.168E-02
RMM:   5    -0.116237369237E+04    0.20208E-05   -0.10959E-05  6234   0.487E-03    0.102E-02
RMM:   6    -0.116237369270E+04   -0.33129E-06   -0.38872E-06  5058   0.294E-03    0.770E-03
RMM:   7    -0.116237369291E+04   -0.20776E-06   -0.16258E-06  3534   0.254E-03    0.465E-03
RMM:   8    -0.116237369312E+04   -0.21317E-06   -0.74494E-07  2644   0.211E-03
   3 F= -.11623737E+04 E0= -.11623725E+04  d E =0.851495E-04  mag=     5.9814
       N       E                     dE             d eps       ncg     rms          rms(c)
DAV:   1    -0.116237336422E+04    0.32869E-03   -0.13252E-01 12352   0.407E-01    0.910E-02
RMM:   2    -0.116237357039E+04   -0.20616E-03   -0.35935E-03 12342   0.750E-02    0.729E-02
RMM:   3    -0.116237353611E+04    0.34272E-04   -0.16560E-04  7566   0.249E-02    0.459E-02
RMM:   4    -0.116237351105E+04    0.25062E-04   -0.99200E-05  7169   0.119E-02    0.259E-02
RMM:   5    -0.116237350557E+04    0.54818E-05   -0.24399E-05  6878   0.698E-03    0.105E-02
RMM:   6    -0.116237350654E+04   -0.97314E-06   -0.85836E-06  6199   0.412E-03    0.886E-03
RMM:   7    -0.116237350715E+04   -0.60402E-06   -0.37303E-06  4853   0.317E-03    0.641E-03
RMM:   8    -0.116237350780E+04   -0.65770E-06   -0.23756E-06  4063   0.256E-03
   4 F= -.11623735E+04 E0= -.11623723E+04  d E =0.185318E-03  mag=     5.9813
       N       E                     dE             d eps       ncg     rms          rms(c)
DAV:   1    -0.116237336982E+04    0.13732E-03   -0.11895E-01 12352   0.386E-01    0.900E-02
RMM:   2    -0.116237354610E+04   -0.17627E-03   -0.33901E-03 12254   0.730E-02    0.793E-02
RMM:   3    -0.116237351230E+04    0.33800E-04   -0.15007E-04  7579   0.239E-02    0.499E-02
RMM:   4    -0.116237348598E+04    0.26315E-04   -0.97469E-05  7183   0.118E-02    0.276E-02
RMM:   5    -0.116237347872E+04    0.72578E-05   -0.25145E-05  6888   0.704E-03    0.110E-02
RMM:   6    -0.116237347956E+04   -0.83169E-06   -0.83690E-06  5972   0.408E-03    0.968E-03
RMM:   7    -0.116237348008E+04   -0.52454E-06   -0.37173E-06  4720   0.314E-03    0.714E-03
RMM:   8    -0.116237348059E+04   -0.51474E-06   -0.22508E-06  3997   0.251E-03
   5 F= -.11623735E+04 E0= -.11623723E+04  d E =0.272097E-04  mag=     5.9813
       N       E                     dE             d eps       ncg     rms          rms(c)
DAV:   1    -0.116237335175E+04    0.12833E-03   -0.10040E-01 12160   0.353E-01    0.742E-02
RMM:   2    -0.116237352698E+04   -0.17523E-03   -0.26418E-03 12239   0.647E-02    0.642E-02
RMM:   3    -0.116237351061E+04    0.16371E-04   -0.11850E-04  7118   0.213E-02    0.404E-02
RMM:   4    -0.116237349767E+04    0.12936E-04   -0.57931E-05  6932   0.948E-03    0.242E-02
RMM:   5    -0.116237349322E+04    0.44514E-05   -0.18051E-05  6505   0.584E-03    0.767E-03
RMM:   6    -0.116237349397E+04   -0.75107E-06   -0.58264E-06  5278   0.357E-03    0.619E-03
RMM:   7    -0.116237349451E+04   -0.54430E-06   -0.27104E-06  3888   0.285E-03    0.436E-03
RMM:   8    -0.116237349503E+04   -0.52172E-06   -0.16313E-06  3076   0.239E-03
   6 F= -.11623735E+04 E0= -.11623723E+04  d E =-.144399E-04  mag=     5.9813
       N       E                     dE             d eps       ncg     rms          rms(c)
DAV:   1    -0.116237320963E+04    0.28489E-03   -0.11350E-01 12288   0.378E-01    0.722E-02
RMM:   2    -0.116237343918E+04   -0.22955E-03   -0.28441E-03 12414   0.664E-02    0.510E-02
RMM:   3    -0.116237342832E+04    0.10859E-04   -0.12292E-04  7079   0.216E-02    0.323E-02
RMM:   4    -0.116237342022E+04    0.81002E-05   -0.49778E-05  6836   0.907E-03    0.178E-02
RMM:   5    -0.116237341922E+04    0.99736E-06   -0.14469E-05  6450   0.531E-03    0.751E-03
RMM:   6    -0.116237342000E+04   -0.77498E-06   -0.52501E-06  5380   0.353E-03    0.605E-03
RMM:   7    -0.116237342044E+04   -0.43980E-06   -0.24629E-06  3872   0.272E-03    0.377E-03
RMM:   8    -0.116237342092E+04   -0.47758E-06   -0.14372E-06  3098   0.241E-03
   7 F= -.11623734E+04 E0= -.11623722E+04  d E =0.741187E-04  mag=     5.9813
       N       E                     dE             d eps       ncg     rms          rms(c)
DAV:   1    -0.116237323992E+04    0.18051E-03   -0.92079E-02 12288   0.341E-01    0.644E-02
RMM:   2    -0.116237342883E+04   -0.18890E-03   -0.22619E-03 12423   0.589E-02    0.434E-02
RMM:   3    -0.116237342056E+04    0.82675E-05   -0.95671E-05  6963   0.193E-02    0.274E-02
RMM:   4    -0.116237341463E+04    0.59280E-05   -0.38663E-05  6806   0.795E-03    0.144E-02
RMM:   5    -0.116237341455E+04    0.79803E-07   -0.10878E-05  6271   0.466E-03    0.611E-03
RMM:   6    -0.116237341520E+04   -0.64426E-06   -0.40923E-06  5123   0.321E-03    0.494E-03
RMM:   7    -0.116237341554E+04   -0.34878E-06   -0.18184E-06  3483   0.255E-03    0.309E-03
RMM:   8    -0.116237341594E+04   -0.39925E-06   -0.10673E-06  2874   0.228E-03
   8 F= -.11623734E+04 E0= -.11623722E+04  d E =0.497189E-05  mag=     5.9813
       N       E                     dE             d eps       ncg     rms          rms(c)
DAV:   1    -0.116237319078E+04    0.22477E-03   -0.97640E-02 12352   0.355E-01    0.681E-02
RMM:   2    -0.116237339782E+04   -0.20704E-03   -0.24247E-03 12401   0.613E-02    0.442E-02
RMM:   3    -0.116237339020E+04    0.76214E-05   -0.10109E-04  6986   0.204E-02    0.279E-02
RMM:   4    -0.116237338408E+04    0.61209E-05   -0.40411E-05  6785   0.811E-03    0.142E-02
RMM:   5    -0.116237338446E+04   -0.38091E-06   -0.10814E-05  6286   0.472E-03    0.534E-03
RMM:   6    -0.116237338513E+04   -0.67102E-06   -0.42981E-06  5151   0.322E-03    0.420E-03
RMM:   7    -0.116237338549E+04   -0.35754E-06   -0.19283E-06  3657   0.260E-03    0.303E-03
RMM:   8    -0.116237338585E+04   -0.35674E-06   -0.10784E-06  2860   0.223E-03
   9 F= -.11623734E+04 E0= -.11623722E+04  d E =0.300991E-04  mag=     5.9813
       N       E                     dE             d eps       ncg     rms          rms(c)
DAV:   1    -0.116237329577E+04    0.89716E-04   -0.60362E-02 12176   0.279E-01    0.534E-02
RMM:   2    -0.116237342181E+04   -0.12603E-03   -0.15024E-03 12185   0.484E-02    0.348E-02
RMM:   3    -0.116237341682E+04    0.49864E-05   -0.64933E-05  6803   0.167E-02    0.220E-02
RMM:   4    -0.116237341283E+04    0.39935E-05   -0.27977E-05  6653   0.657E-03    0.127E-02
RMM:   5    -0.116237341285E+04   -0.27663E-07   -0.70701E-06  5781   0.391E-03    0.583E-03
RMM:   6    -0.116237341330E+04   -0.44667E-06   -0.29894E-06  4187   0.273E-03    0.421E-03
RMM:   7    -0.116237341354E+04   -0.24210E-06   -0.12038E-06  2882   0.236E-03    0.264E-03
RMM:   8    -0.116237341380E+04   -0.25939E-06   -0.67902E-07  2386   0.209E-03
  10 F= -.11623734E+04 E0= -.11623722E+04  d E =-.279575E-04  mag=     5.9812
       N       E                     dE             d eps       ncg     rms          rms(c)
DAV:   1    -0.116237334703E+04    0.66516E-04   -0.47741E-02 12160   0.250E-01    0.459E-02
RMM:   2    -0.116237345052E+04   -0.10349E-03   -0.11928E-03 12074   0.433E-02    0.294E-02
RMM:   3    -0.116237344745E+04    0.30747E-05   -0.51648E-05  6583   0.153E-02    0.187E-02
RMM:   4    -0.116237344518E+04    0.22630E-05   -0.21462E-05  6384   0.576E-03    0.108E-02
RMM:   5    -0.116237344528E+04   -0.93685E-07   -0.48337E-06  4971   0.348E-03    0.537E-03
RMM:   6    -0.116237344561E+04   -0.33330E-06   -0.22726E-06  3474   0.252E-03    0.332E-03
RMM:   7    -0.116237344578E+04   -0.17263E-06   -0.88908E-07  2556   0.233E-03    0.191E-03
RMM:   8    -0.116237344594E+04   -0.16026E-06   -0.46899E-07  1915   0.203E-03
  11 F= -.11623734E+04 E0= -.11623722E+04  d E =-.321401E-04  mag=     5.9812
       N       E                     dE             d eps       ncg     rms          rms(c)
DAV:   1    -0.116237339591E+04    0.49871E-04   -0.44447E-02 12112   0.241E-01    0.427E-02
RMM:   2    -0.116237349065E+04   -0.94739E-04   -0.10822E-03 11963   0.410E-02    0.269E-02
RMM:   3    -0.116237348797E+04    0.26828E-05   -0.47221E-05  6653   0.147E-02    0.172E-02
RMM:   4    -0.116237348595E+04    0.20136E-05   -0.19701E-05  6398   0.548E-03    0.990E-03
RMM:   5    -0.116237348609E+04   -0.13827E-06   -0.42149E-06  4868   0.331E-03    0.471E-03
RMM:   6    -0.116237348636E+04   -0.26447E-06   -0.18415E-06  3183   0.244E-03    0.290E-03
RMM:   7    -0.116237348650E+04   -0.14112E-06   -0.75058E-07  2468   0.226E-03    0.166E-03
RMM:   8    -0.116237348662E+04   -0.11876E-06   -0.38064E-07  1797   0.203E-03
  12 F= -.11623735E+04 E0= -.11623723E+04  d E =-.406744E-04  mag=     5.9812
       N       E                     dE             d eps       ncg     rms          rms(c)
DAV:   1    -0.116237345075E+04    0.35750E-04   -0.39260E-02 12080   0.226E-01    0.398E-02
RMM:   2    -0.116237353516E+04   -0.84410E-04   -0.96500E-04 11777   0.387E-02    0.255E-02
RMM:   3    -0.116237353271E+04    0.24520E-05   -0.41921E-05  6539   0.136E-02    0.163E-02
RMM:   4    -0.116237353100E+04    0.17059E-05   -0.17150E-05  6202   0.516E-03    0.930E-03
RMM:   5    -0.116237353101E+04   -0.67812E-08   -0.37146E-06  4684   0.318E-03    0.355E-03
RMM:   6    -0.116237353123E+04   -0.22599E-06   -0.15808E-06  2971   0.235E-03    0.236E-03
RMM:   7    -0.116237353134E+04   -0.10926E-06   -0.62159E-07  2323   0.222E-03    0.138E-03
RMM:   8    -0.116237353143E+04   -0.87864E-07   -0.28804E-07  1628   0.200E-03
  13 F= -.11623735E+04 E0= -.11623723E+04  d E =-.448132E-04  mag=     5.9812
       N       E                     dE             d eps       ncg     rms          rms(c)
DAV:   1    -0.116237348079E+04    0.50556E-04   -0.43556E-02 12032   0.238E-01    0.412E-02
RMM:   2    -0.116237357580E+04   -0.95011E-04   -0.10608E-03 11807   0.405E-02    0.259E-02
RMM:   3    -0.116237357368E+04    0.21140E-05   -0.45868E-05  6598   0.144E-02    0.166E-02
RMM:   4    -0.116237357205E+04    0.16344E-05   -0.18199E-05  6288   0.529E-03    0.990E-03
RMM:   5    -0.116237357217E+04   -0.11787E-06   -0.40017E-06  4837   0.326E-03    0.461E-03
RMM:   6    -0.116237357241E+04   -0.24539E-06   -0.17837E-06  3166   0.241E-03    0.276E-03
RMM:   7    -0.116237357254E+04   -0.12586E-06   -0.75261E-07  2481   0.223E-03    0.158E-03
RMM:   8    -0.116237357263E+04   -0.91939E-07   -0.33226E-07  1701   0.200E-03
  14 F= -.11623736E+04 E0= -.11623724E+04  d E =-.412000E-04  mag=     5.9812
