       N       E                     dE             d eps       ncg     rms          rms(c)
DAV:   1     0.119030536050E+05    0.11903E+05   -0.42075E+05  3080   0.131E+03
DAV:   2     0.655655272785E+03   -0.11247E+05   -0.10050E+05  3072   0.375E+02
DAV:   3    -0.136605421804E+04   -0.20217E+04   -0.19477E+04  3304   0.165E+02
DAV:   4    -0.150071694571E+04   -0.13466E+03   -0.13245E+03  4080   0.441E+01
DAV:   5    -0.150914054353E+04   -0.84236E+01   -0.83818E+01  5560   0.101E+01    0.180E+02
RMM:   6    -0.116579471652E+04    0.34335E+03   -0.15856E+03  3132   0.345E+01    0.105E+02
RMM:   7    -0.115178353552E+04    0.14011E+02   -0.62605E+01  3203   0.110E+01    0.633E+01
RMM:   8    -0.115571274082E+04   -0.39292E+01   -0.20404E+01  3539   0.532E+00    0.308E+01
RMM:   9    -0.115936810259E+04   -0.36554E+01   -0.46399E+00  3497   0.233E+00    0.820E+00
RMM:  10    -0.116086985545E+04   -0.15018E+01   -0.16180E+00  3566   0.123E+00    0.580E+00
RMM:  11    -0.116224590037E+04   -0.13760E+01   -0.17661E+00  3504   0.111E+00    0.391E+00
RMM:  12    -0.116265967075E+04   -0.41377E+00   -0.56899E-01  3346   0.783E-01    0.196E+00
RMM:  13    -0.116277682154E+04   -0.11715E+00   -0.23561E-01  3734   0.453E-01    0.129E+00
RMM:  14    -0.116279889399E+04   -0.22072E-01   -0.68378E-02  3635   0.239E-01    0.809E-01
RMM:  15    -0.116280140239E+04   -0.25084E-02   -0.19787E-02  4414   0.123E-01    0.381E-01
RMM:  16    -0.116280274482E+04   -0.13424E-02   -0.87412E-03  4098   0.739E-02    0.158E-01
RMM:  17    -0.116280286912E+04   -0.12430E-03   -0.20108E-03  3525   0.389E-02    0.815E-02
RMM:  18    -0.116280301186E+04   -0.14275E-03   -0.11048E-03  3073   0.225E-02    0.349E-02
RMM:  19    -0.116280308045E+04   -0.68582E-04   -0.52815E-04  2551   0.178E-02
   1 F= -.11628031E+04 E0= -.11628031E+04  d E =-.116280E+04  mag=     5.9995
       N       E                     dE             d eps       ncg     rms          rms(c)
DAV:   1    -0.116295537502E+04   -0.15236E+00   -0.74083E+01  3560   0.987E+00    0.304E+00
RMM:   2    -0.116316421123E+04   -0.20884E+00   -0.29185E+00  3077   0.196E+00    0.241E+00
RMM:   3    -0.116315370635E+04    0.10505E-01   -0.16859E-01  3304   0.660E-01    0.149E+00
RMM:   4    -0.116314279237E+04    0.10914E-01   -0.58781E-02  3429   0.266E-01    0.107E+00
RMM:   5    -0.116313885802E+04    0.39343E-02   -0.13998E-02  3471   0.133E-01    0.241E-01
RMM:   6    -0.116313896142E+04   -0.10340E-03   -0.33063E-03  4094   0.531E-02    0.115E-01
RMM:   7    -0.116313892447E+04    0.36948E-04   -0.90294E-04  3308   0.239E-02    0.652E-02
RMM:   8    -0.116313894413E+04   -0.19655E-04   -0.38911E-04  2467   0.190E-02
   2 F= -.11631389E+04 E0= -.11631354E+04  d E =-.335864E+00  mag=     5.9788
       N       E                     dE             d eps       ncg     rms          rms(c)
DAV:   1    -0.116314088017E+04   -0.19557E-02   -0.11416E+00  3512   0.123E+00    0.409E-01
RMM:   2    -0.116314366690E+04   -0.27867E-02   -0.38577E-02  3063   0.237E-01    0.303E-01
RMM:   3    -0.116314342346E+04    0.24344E-03   -0.21624E-03  3262   0.762E-02    0.181E-01
RMM:   4    -0.116314330041E+04    0.12305E-03   -0.94811E-04  2858   0.337E-02    0.122E-01
RMM:   5    -0.116314324527E+04    0.55131E-04   -0.25815E-04  2237   0.198E-02    0.308E-02
RMM:   6    -0.116314324523E+04    0.42739E-07   -0.51072E-05  1943   0.116E-02    0.195E-02
RMM:   7    -0.116314324734E+04   -0.21121E-05   -0.26294E-05  1866   0.703E-03    0.196E-02
RMM:   8    -0.116314324840E+04   -0.10514E-05   -0.13665E-05  1795   0.635E-03
   3 F= -.11631432E+04 E0= -.11631375E+04  d E =-.340168E+00  mag=     5.9639
       N       E                     dE             d eps       ncg     rms          rms(c)
DAV:   1    -0.116316426653E+04   -0.21019E-01   -0.39216E+01  3312   0.735E+00    0.191E+00
RMM:   2    -0.116324495670E+04   -0.80690E-01   -0.12013E+00  3078   0.135E+00    0.203E+00
RMM:   3    -0.116323755864E+04    0.73981E-02   -0.55279E-02  3366   0.380E-01    0.131E+00
RMM:   4    -0.116323259184E+04    0.49668E-02   -0.18019E-02  3616   0.148E-01    0.856E-01
RMM:   5    -0.116323044266E+04    0.21492E-02   -0.84282E-03  3412   0.946E-02    0.216E-01
RMM:   6    -0.116323040607E+04    0.36586E-04   -0.15596E-03  3409   0.440E-02    0.114E-01
RMM:   7    -0.116323039585E+04    0.10216E-04   -0.47458E-04  2665   0.190E-02    0.789E-02
RMM:   8    -0.116323041979E+04   -0.23940E-04   -0.22990E-04  2277   0.164E-02
   4 F= -.11632304E+04 E0= -.11632210E+04  d E =-.871714E-01  mag=     5.9541
       N       E                     dE             d eps       ncg     rms          rms(c)
DAV:   1    -0.116323043926E+04   -0.43408E-04   -0.34675E-03  3400   0.697E-02    0.236E-02
RMM:   2    -0.116323044796E+04   -0.86926E-05   -0.12035E-04  1865   0.155E-02    0.229E-02
RMM:   3    -0.116323044953E+04   -0.15777E-05   -0.17575E-05  1727   0.691E-03    0.125E-02
RMM:   4    -0.116323045055E+04   -0.10187E-05   -0.76567E-06  1660   0.429E-03    0.122E-02
RMM:   5    -0.116323045109E+04   -0.53545E-06   -0.39870E-06  1380   0.343E-03    0.558E-03
RMM:   6    -0.116323045133E+04   -0.24501E-06   -0.23828E-06  1134   0.274E-03    0.298E-03
RMM:   7    -0.116323045153E+04   -0.19597E-06   -0.12918E-06   934   0.254E-03    0.150E-03
RMM:   8    -0.116323045164E+04   -0.11070E-06   -0.66353E-07   757   0.221E-03
   5 F= -.11632305E+04 E0= -.11632211E+04  d E =-.872032E-01  mag=     5.9575
       N       E                     dE             d eps       ncg     rms          rms(c)
DAV:   1    -0.116324106779E+04   -0.10616E-01   -0.24593E+01  3216   0.593E+00    0.154E+00
RMM:   2    -0.116329457641E+04   -0.53509E-01   -0.70899E-01  3080   0.104E+00    0.131E+00
RMM:   3    -0.116329369614E+04    0.88027E-03   -0.37451E-02  3247   0.341E-01    0.792E-01
RMM:   4    -0.116329274894E+04    0.94720E-03   -0.91622E-03  4107   0.107E-01    0.561E-01
RMM:   5    -0.116329236141E+04    0.38753E-03   -0.44045E-03  3544   0.597E-02    0.192E-01
RMM:   6    -0.116329232304E+04    0.38369E-04   -0.10715E-03  3387   0.343E-02    0.696E-02
RMM:   7    -0.116329234535E+04   -0.22302E-04   -0.38725E-04  2474   0.168E-02    0.375E-02
RMM:   8    -0.116329236597E+04   -0.20622E-04   -0.19852E-04  2114   0.131E-02
   6 F= -.11632924E+04 E0= -.11632801E+04  d E =-.619143E-01  mag=     5.9682
       N       E                     dE             d eps       ncg     rms          rms(c)
DAV:   1    -0.116320633686E+04    0.86008E-01   -0.56104E+01  3168   0.896E+00    0.226E+00
RMM:   2    -0.116333402058E+04   -0.12768E+00   -0.16154E+00  3085   0.158E+00    0.188E+00
RMM:   3    -0.116333063589E+04    0.33847E-02   -0.83961E-02  3280   0.510E-01    0.117E+00
RMM:   4    -0.116332881937E+04    0.18165E-02   -0.24081E-02  4055   0.169E-01    0.869E-01
RMM:   5    -0.116332744402E+04    0.13753E-02   -0.94237E-03  3707   0.896E-02    0.289E-01
RMM:   6    -0.116332738867E+04    0.55356E-04   -0.26480E-03  3935   0.524E-02    0.971E-02
RMM:   7    -0.116332746874E+04   -0.80071E-04   -0.96665E-04  3176   0.246E-02    0.601E-02
RMM:   8    -0.116332752565E+04   -0.56917E-04   -0.49763E-04  2668   0.187E-02
   7 F= -.11633275E+04 E0= -.11633161E+04  d E =-.970740E-01  mag=     5.9817
       N       E                     dE             d eps       ncg     rms          rms(c)
DAV:   1    -0.116333935084E+04   -0.11882E-01   -0.10170E+01  3216   0.380E+00    0.905E-01
RMM:   2    -0.116336715398E+04   -0.27803E-01   -0.29529E-01  3078   0.662E-01    0.664E-01
RMM:   3    -0.116336636551E+04    0.78847E-03   -0.14045E-02  3346   0.197E-01    0.425E-01
RMM:   4    -0.116336626089E+04    0.10462E-03   -0.50487E-03  3798   0.726E-02    0.265E-01
RMM:   5    -0.116336598815E+04    0.27274E-03   -0.17148E-03  3623   0.376E-02    0.538E-02
RMM:   6    -0.116336602219E+04   -0.34042E-04   -0.35531E-04  2413   0.188E-02    0.334E-02
RMM:   7    -0.116336604118E+04   -0.18989E-04   -0.19415E-04  2126   0.130E-02    0.254E-02
RMM:   8    -0.116336605124E+04   -0.10063E-04   -0.10291E-04  1920   0.106E-02
   8 F= -.11633661E+04 E0= -.11633586E+04  d E =-.385256E-01  mag=     5.9856
       N       E                     dE             d eps       ncg     rms          rms(c)
DAV:   1    -0.116317790208E+04    0.18814E+00   -0.91501E+01  3152   0.114E+01    0.258E+00
RMM:   2    -0.116344899243E+04   -0.27109E+00   -0.26219E+00  3077   0.200E+00    0.267E+00
RMM:   3    -0.116344562894E+04    0.33635E-02   -0.14418E-01  3293   0.608E-01    0.187E+00
RMM:   4    -0.116346829116E+04   -0.22662E-01   -0.61695E-02  3853   0.258E-01    0.156E+00
RMM:   5    -0.116347782771E+04   -0.95365E-02   -0.60479E-02  3465   0.236E-01    0.654E-01
RMM:   6    -0.116348620221E+04   -0.83745E-02   -0.21896E-02  3645   0.160E-01    0.404E-01
RMM:   7    -0.116348848689E+04   -0.22847E-02   -0.67179E-03  3923   0.745E-02    0.264E-01
RMM:   8    -0.116348943236E+04   -0.94548E-03   -0.27212E-03  3730   0.510E-02    0.159E-01
RMM:   9    -0.116348972810E+04   -0.29573E-03   -0.90338E-04  3218   0.281E-02    0.834E-02
RMM:  10    -0.116348986323E+04   -0.13514E-03   -0.43847E-04  2584   0.197E-02    0.414E-02
RMM:  11    -0.116348990352E+04   -0.40288E-04   -0.21770E-04  2220   0.143E-02
   9 F= -.11634899E+04 E0= -.11634864E+04  d E =-.162378E+00  mag=     5.9651
       N       E                     dE             d eps       ncg     rms          rms(c)
DAV:   1    -0.116252137057E+04    0.96849E+00   -0.36453E+02  3128   0.227E+01    0.520E+00
RMM:   2    -0.116343741171E+04   -0.91604E+00   -0.11121E+01  3082   0.407E+00    0.440E+00
RMM:   3    -0.116341488962E+04    0.22522E-01   -0.52106E-01  3359   0.118E+00    0.293E+00
RMM:   4    -0.116340778282E+04    0.71068E-02   -0.16198E-01  3784   0.437E-01    0.185E+00
RMM:   5    -0.116338980788E+04    0.17975E-01   -0.53525E-02  3600   0.226E-01    0.490E-01
RMM:   6    -0.116338950061E+04    0.30728E-03   -0.95984E-03  4263   0.108E-01    0.239E-01
RMM:   7    -0.116338953643E+04   -0.35828E-04   -0.37923E-03  4467   0.498E-02    0.142E-01
RMM:   8    -0.116338972046E+04   -0.18402E-03   -0.17929E-03  4063   0.379E-02    0.739E-02
RMM:   9    -0.116338982344E+04   -0.10298E-03   -0.90940E-04  2930   0.238E-02    0.350E-02
RMM:  10    -0.116338987547E+04   -0.52030E-04   -0.51716E-04  2577   0.194E-02
  10 F= -.11633899E+04 E0= -.11633804E+04  d E =-.623498E-01  mag=     5.7849
       N       E                     dE             d eps       ncg     rms          rms(c)
DAV:   1    -0.116321424525E+04    0.17558E+00   -0.15178E+02  3152   0.146E+01    0.337E+00
RMM:   2    -0.116355923321E+04   -0.34499E+00   -0.43554E+00  3080   0.258E+00    0.285E+00
RMM:   3    -0.116355202611E+04    0.72071E-02   -0.21519E-01  3395   0.755E-01    0.189E+00
RMM:   4    -0.116355123475E+04    0.79135E-03   -0.75830E-02  3696   0.292E-01    0.140E+00
RMM:   5    -0.116354011421E+04    0.11121E-01   -0.20897E-02  3569   0.148E-01    0.251E-01
RMM:   6    -0.116354002718E+04    0.87025E-04   -0.48346E-03  4284   0.712E-02    0.136E-01
RMM:   7    -0.116354008269E+04   -0.55503E-04   -0.15700E-03  3949   0.313E-02    0.870E-02
RMM:   8    -0.116354014859E+04   -0.65905E-04   -0.67874E-04  2870   0.233E-02
  11 F= -.11635401E+04 E0= -.11635357E+04  d E =-.212623E+00  mag=     5.9148
       N       E                     dE             d eps       ncg     rms          rms(c)
DAV:   1    -0.116348304226E+04    0.57040E-01   -0.36459E+01  3168   0.702E+00    0.168E+00
RMM:   2    -0.116356256458E+04   -0.79522E-01   -0.10359E+00  3082   0.126E+00    0.187E+00
RMM:   3    -0.116355707785E+04    0.54867E-02   -0.43908E-02  3312   0.341E-01    0.140E+00
RMM:   4    -0.116355484540E+04    0.22325E-02   -0.18642E-02  3384   0.146E-01    0.862E-01
RMM:   5    -0.116355110138E+04    0.37440E-02   -0.76556E-03  3311   0.900E-02    0.246E-01
RMM:   6    -0.116355106426E+04    0.37117E-04   -0.10024E-03  3074   0.338E-02    0.127E-01
RMM:   7    -0.116355099194E+04    0.72323E-04   -0.25408E-04  2244   0.161E-02    0.751E-02
RMM:   8    -0.116355099644E+04   -0.45000E-05   -0.14861E-04  2037   0.154E-02
  12 F= -.11635510E+04 E0= -.11635461E+04  d E =-.108478E-01  mag=     5.9299
       N       E                     dE             d eps       ncg     rms          rms(c)
DAV:   1    -0.116355269307E+04   -0.17011E-02   -0.64617E+00  3232   0.294E+00    0.724E-01
RMM:   2    -0.116356633122E+04   -0.13638E-01   -0.18225E-01  3079   0.533E-01    0.803E-01
RMM:   3    -0.116356536180E+04    0.96943E-03   -0.79540E-03  3259   0.145E-01    0.597E-01
RMM:   4    -0.116356511358E+04    0.24821E-03   -0.34216E-03  3181   0.623E-02    0.386E-01
RMM:   5    -0.116356432643E+04    0.78715E-03   -0.13859E-03  2935   0.392E-02    0.956E-02
RMM:   6    -0.116356430985E+04    0.16580E-04   -0.14587E-04  2093   0.167E-02    0.525E-02
RMM:   7    -0.116356430310E+04    0.67551E-05   -0.54335E-05  1838   0.104E-02    0.317E-02
RMM:   8    -0.116356430435E+04   -0.12520E-05   -0.36545E-05  1775   0.877E-03
  13 F= -.11635643E+04 E0= -.11635595E+04  d E =-.241558E-01  mag=     5.9304
       N       E                     dE             d eps       ncg     rms          rms(c)
DAV:   1    -0.116358681525E+04   -0.22512E-01   -0.21862E+00  3248   0.176E+00    0.531E-01
RMM:   2    -0.116359169915E+04   -0.48839E-02   -0.73376E-02  3082   0.337E-01    0.562E-01
RMM:   3    -0.116359109516E+04    0.60399E-03   -0.31552E-03  3325   0.925E-02    0.385E-01
RMM:   4    -0.116359100432E+04    0.90844E-04   -0.16308E-03  3221   0.428E-02    0.248E-01
RMM:   5    -0.116359069123E+04    0.31309E-03   -0.56472E-04  2814   0.269E-02    0.533E-02
RMM:   6    -0.116359067340E+04    0.17826E-04   -0.87738E-05  1994   0.122E-02    0.349E-02
RMM:   7    -0.116359067224E+04    0.11641E-05   -0.41403E-05  1786   0.911E-03    0.187E-02
RMM:   8    -0.116359067450E+04   -0.22611E-05   -0.24916E-05  1760   0.682E-03
  14 F= -.11635907E+04 E0= -.11635864E+04  d E =-.263701E-01  mag=     5.9429
       N       E                     dE             d eps       ncg     rms          rms(c)
DAV:   1    -0.116359618385E+04   -0.55116E-02   -0.60754E+00  3216   0.293E+00    0.888E-01
RMM:   2    -0.116360978229E+04   -0.13598E-01   -0.20377E-01  3082   0.560E-01    0.937E-01
RMM:   3    -0.116360810073E+04    0.16816E-02   -0.89033E-03  3402   0.150E-01    0.641E-01
RMM:   4    -0.116360782414E+04    0.27659E-03   -0.45617E-03  3442   0.713E-02    0.410E-01
RMM:   5    -0.116360696786E+04    0.85628E-03   -0.15607E-03  3280   0.423E-02    0.849E-02
RMM:   6    -0.116360692697E+04    0.40892E-04   -0.26426E-04  2317   0.181E-02    0.564E-02
RMM:   7    -0.116360692450E+04    0.24725E-05   -0.12501E-04  1985   0.130E-02    0.310E-02
RMM:   8    -0.116360692922E+04   -0.47231E-05   -0.64817E-05  1828   0.968E-03
  15 F= -.11636069E+04 E0= -.11636033E+04  d E =-.426249E-01  mag=     5.9622
       N       E                     dE             d eps       ncg     rms          rms(c)
DAV:   1    -0.116361743246E+04   -0.10508E-01   -0.33808E+00  3216   0.223E+00    0.645E-01
RMM:   2    -0.116362550578E+04   -0.80733E-02   -0.11013E-01  3086   0.423E-01    0.584E-01
RMM:   3    -0.116362494505E+04    0.56072E-03   -0.52820E-03  3393   0.122E-01    0.375E-01
RMM:   4    -0.116362484873E+04    0.96320E-04   -0.20681E-03  3388   0.491E-02    0.238E-01
RMM:   5    -0.116362457355E+04    0.27518E-03   -0.69250E-04  3044   0.270E-02    0.460E-02
RMM:   6    -0.116362456708E+04    0.64691E-05   -0.13728E-04  2100   0.139E-02    0.245E-02
RMM:   7    -0.116362456997E+04   -0.28839E-05   -0.71597E-05  1843   0.981E-03    0.161E-02
RMM:   8    -0.116362457313E+04   -0.31598E-05   -0.36828E-05  1781   0.718E-03
  16 F= -.11636246E+04 E0= -.11636209E+04  d E =-.176439E-01  mag=     5.9702
       N       E                     dE             d eps       ncg     rms          rms(c)
DAV:   1    -0.116362412646E+04    0.44351E-03   -0.24432E+00  3216   0.190E+00    0.548E-01
RMM:   2    -0.116362996339E+04   -0.58369E-02   -0.79540E-02  3085   0.359E-01    0.495E-01
RMM:   3    -0.116362956502E+04    0.39837E-03   -0.38312E-03  3383   0.103E-01    0.318E-01
RMM:   4    -0.116362949576E+04    0.69257E-04   -0.15022E-03  3316   0.421E-02    0.206E-01
RMM:   5    -0.116362929874E+04    0.19702E-03   -0.48639E-04  2799   0.234E-02    0.424E-02
RMM:   6    -0.116362929309E+04    0.56465E-05   -0.10337E-04  1985   0.128E-02    0.206E-02
RMM:   7    -0.116362929508E+04   -0.19891E-05   -0.49518E-05  1810   0.909E-03    0.153E-02
RMM:   8    -0.116362929742E+04   -0.23370E-05   -0.27045E-05  1760   0.656E-03
  17 F= -.11636293E+04 E0= -.11636256E+04  d E =-.223682E-01  mag=     5.9756
       N       E                     dE             d eps       ncg     rms          rms(c)
DAV:   1    -0.116363310724E+04   -0.38122E-02   -0.15518E+00  3240   0.149E+00    0.379E-01
RMM:   2    -0.116363621670E+04   -0.31095E-02   -0.43568E-02  3082   0.269E-01    0.306E-01
RMM:   3    -0.116363598634E+04    0.23036E-03   -0.21959E-03  3143   0.827E-02    0.198E-01
RMM:   4    -0.116363584817E+04    0.13817E-03   -0.97923E-04  3039   0.335E-02    0.114E-01
RMM:   5    -0.116363577536E+04    0.72813E-04   -0.28338E-04  2263   0.218E-02    0.513E-02
RMM:   6    -0.116363578121E+04   -0.58569E-05   -0.54968E-05  1812   0.117E-02    0.271E-02
RMM:   7    -0.116363578550E+04   -0.42894E-05   -0.32186E-05  1781   0.773E-03    0.191E-02
RMM:   8    -0.116363578790E+04   -0.23946E-05   -0.17588E-05  1734   0.620E-03
  18 F= -.11636358E+04 E0= -.11636315E+04  d E =-.649048E-02  mag=     5.9703
       N       E                     dE             d eps       ncg     rms          rms(c)
DAV:   1    -0.116363593897E+04   -0.15347E-03   -0.23996E-01  3248   0.585E-01    0.149E-01
RMM:   2    -0.116363642147E+04   -0.48250E-03   -0.67577E-03  3078   0.106E-01    0.120E-01
RMM:   3    -0.116363638304E+04    0.38437E-04   -0.30881E-04  2311   0.349E-02    0.785E-02
RMM:   4    -0.116363636344E+04    0.19591E-04   -0.14757E-04  1856   0.151E-02    0.471E-02
RMM:   5    -0.116363635539E+04    0.80559E-05   -0.54806E-05  1866   0.109E-02    0.269E-02
RMM:   6    -0.116363635760E+04   -0.22161E-05   -0.18945E-05  1733   0.650E-03    0.131E-02
RMM:   7    -0.116363635882E+04   -0.12138E-05   -0.99735E-06  1631   0.492E-03    0.105E-02
RMM:   8    -0.116363635971E+04   -0.89456E-06   -0.66201E-06  1504   0.386E-03
  19 F= -.11636364E+04 E0= -.11636319E+04  d E =-.706229E-02  mag=     5.9671
       N       E                     dE             d eps       ncg     rms          rms(c)
DAV:   1    -0.116363707744E+04   -0.71862E-03   -0.13176E+00  3232   0.135E+00    0.287E-01
RMM:   2    -0.116364025539E+04   -0.31780E-02   -0.35973E-02  3078   0.233E-01    0.249E-01
RMM:   3    -0.116364015856E+04    0.96833E-04   -0.15140E-03  3049   0.680E-02    0.165E-01
RMM:   4    -0.116364013208E+04    0.26477E-04   -0.47932E-04  2627   0.240E-02    0.119E-01
RMM:   5    -0.116364006489E+04    0.67194E-04   -0.17843E-04  2031   0.180E-02    0.227E-02
RMM:   6    -0.116364006751E+04   -0.26279E-05   -0.48809E-05  1767   0.112E-02    0.125E-02
RMM:   7    -0.116364006936E+04   -0.18413E-05   -0.25597E-05  1736   0.718E-03    0.965E-03
RMM:   8    -0.116364007053E+04   -0.11746E-05   -0.14442E-05  1607   0.584E-03
  20 F= -.11636401E+04 E0= -.11636357E+04  d E =-.371082E-02  mag=     5.9658
       N       E                     dE             d eps       ncg     rms          rms(c)
DAV:   1    -0.116363720963E+04    0.28597E-02   -0.20296E+00  3216   0.168E+00    0.355E-01
RMM:   2    -0.116364212423E+04   -0.49146E-02   -0.55598E-02  3079   0.290E-01    0.309E-01
RMM:   3    -0.116364197736E+04    0.14687E-03   -0.23679E-03  3083   0.852E-02    0.205E-01
RMM:   4    -0.116364194149E+04    0.35876E-04   -0.78235E-04  3062   0.296E-02    0.147E-01
RMM:   5    -0.116364184292E+04    0.98567E-04   -0.33410E-04  2386   0.205E-02    0.270E-02
RMM:   6    -0.116364184159E+04    0.13246E-05   -0.57172E-05  1793   0.121E-02    0.155E-02
RMM:   7    -0.116364184320E+04   -0.16046E-05   -0.31001E-05  1748   0.773E-03    0.106E-02
RMM:   8    -0.116364184479E+04   -0.15889E-05   -0.19278E-05  1708   0.666E-03
  21 F= -.11636418E+04 E0= -.11636376E+04  d E =-.548507E-02  mag=     5.9646
       N       E                     dE             d eps       ncg     rms          rms(c)
DAV:   1    -0.116364144510E+04    0.39810E-03   -0.15999E+00  3184   0.148E+00    0.299E-01
RMM:   2    -0.116364496455E+04   -0.35195E-02   -0.40982E-02  3082   0.249E-01    0.250E-01
RMM:   3    -0.116364485218E+04    0.11238E-03   -0.18675E-03  3027   0.787E-02    0.163E-01
RMM:   4    -0.116364480443E+04    0.47745E-04   -0.66123E-04  2931   0.280E-02    0.118E-01
RMM:   5    -0.116364472807E+04    0.76355E-04   -0.15234E-04  2025   0.169E-02    0.293E-02
RMM:   6    -0.116364473148E+04   -0.34057E-05   -0.58492E-05  1777   0.111E-02    0.144E-02
RMM:   7    -0.116364473407E+04   -0.25853E-05   -0.28130E-05  1744   0.853E-03    0.117E-02
RMM:   8    -0.116364473573E+04   -0.16640E-05   -0.18643E-05  1652   0.608E-03
  22 F= -.11636447E+04 E0= -.11636406E+04  d E =-.289094E-02  mag=     5.9640
       N       E                     dE             d eps       ncg     rms          rms(c)
DAV:   1    -0.116364430875E+04    0.42531E-03   -0.41989E-01  3200   0.758E-01    0.153E-01
RMM:   2    -0.116364524203E+04   -0.93328E-03   -0.10852E-02  3103   0.129E-01    0.128E-01
RMM:   3    -0.116364521275E+04    0.29285E-04   -0.50025E-04  2503   0.433E-02    0.839E-02
RMM:   4    -0.116364519901E+04    0.13734E-04   -0.15705E-04  1913   0.153E-02    0.584E-02
RMM:   5    -0.116364518324E+04    0.15776E-04   -0.54601E-05  1779   0.109E-02    0.187E-02
RMM:   6    -0.116364518535E+04   -0.21116E-05   -0.21894E-05  1722   0.685E-03    0.989E-03
RMM:   7    -0.116364518650E+04   -0.11572E-05   -0.12126E-05  1635   0.551E-03    0.767E-03
RMM:   8    -0.116364518731E+04   -0.80791E-06   -0.78490E-06  1397   0.406E-03
  23 F= -.11636452E+04 E0= -.11636410E+04  d E =-.334253E-02  mag=     5.9638
       N       E                     dE             d eps       ncg     rms          rms(c)
DAV:   1    -0.116364446759E+04    0.71891E-03   -0.15893E+00  3136   0.144E+00    0.252E-01
RMM:   2    -0.116364793653E+04   -0.34689E-02   -0.38708E-02  3076   0.239E-01    0.205E-01
RMM:   3    -0.116364784039E+04    0.96135E-04   -0.17051E-03  2982   0.723E-02    0.131E-01
RMM:   4    -0.116364776943E+04    0.70968E-04   -0.50656E-04  2804   0.240E-02    0.980E-02
RMM:   5    -0.116364771035E+04    0.59078E-04   -0.17030E-04  2039   0.165E-02    0.277E-02
RMM:   6    -0.116364771538E+04   -0.50361E-05   -0.47330E-05  1765   0.106E-02    0.142E-02
RMM:   7    -0.116364771730E+04   -0.19171E-05   -0.22326E-05  1719   0.689E-03    0.109E-02
RMM:   8    -0.116364771835E+04   -0.10441E-05   -0.13004E-05  1585   0.554E-03
  24 F= -.11636477E+04 E0= -.11636434E+04  d E =-.253103E-02  mag=     5.9656
       N       E                     dE             d eps       ncg     rms          rms(c)
DAV:   1    -0.116364594362E+04    0.17737E-02   -0.12466E+00  3144   0.127E+00    0.223E-01
RMM:   2    -0.116364867160E+04   -0.27280E-02   -0.30427E-02  3081   0.212E-01    0.182E-01
RMM:   3    -0.116364860006E+04    0.71545E-04   -0.13895E-03  2950   0.661E-02    0.116E-01
RMM:   4    -0.116364854480E+04    0.55264E-04   -0.40559E-04  2553   0.215E-02    0.884E-02
RMM:   5    -0.116364849717E+04    0.47629E-04   -0.13696E-04  1970   0.157E-02    0.254E-02
RMM:   6    -0.116364850212E+04   -0.49557E-05   -0.43836E-05  1759   0.996E-03    0.126E-02
RMM:   7    -0.116364850396E+04   -0.18362E-05   -0.20621E-05  1710   0.673E-03    0.967E-03
RMM:   8    -0.116364850501E+04   -0.10507E-05   -0.12360E-05  1566   0.523E-03
  25 F= -.11636485E+04 E0= -.11636441E+04  d E =-.331770E-02  mag=     5.9677
       N       E                     dE             d eps       ncg     rms          rms(c)
DAV:   1    -0.116364627534E+04    0.22286E-02   -0.18267E+00  3192   0.155E+00    0.273E-01
RMM:   2    -0.116365032520E+04   -0.40499E-02   -0.44778E-02  3080   0.260E-01    0.210E-01
RMM:   3    -0.116365025787E+04    0.67333E-04   -0.20436E-03  3018   0.832E-02    0.138E-01
RMM:   4    -0.116365018489E+04    0.72979E-04   -0.59435E-04  2964   0.267E-02    0.919E-02
RMM:   5    -0.116365013627E+04    0.48622E-04   -0.16049E-04  2048   0.164E-02    0.315E-02
RMM:   6    -0.116365014276E+04   -0.64889E-05   -0.46835E-05  1775   0.104E-02    0.127E-02
RMM:   7    -0.116365014506E+04   -0.23057E-05   -0.24040E-05  1729   0.713E-03    0.988E-03
RMM:   8    -0.116365014639E+04   -0.13265E-05   -0.14525E-05  1586   0.572E-03
  26 F= -.11636501E+04 E0= -.11636455E+04  d E =-.164138E-02  mag=     5.9617
       N       E                     dE             d eps       ncg     rms          rms(c)
DAV:   1    -0.116365004372E+04    0.10134E-03   -0.72634E-02  3216   0.309E-01    0.543E-02
RMM:   2    -0.116365021478E+04   -0.17106E-03   -0.18776E-03  3115   0.537E-02    0.430E-02
RMM:   3    -0.116365020881E+04    0.59643E-05   -0.71328E-05  1753   0.165E-02    0.282E-02
RMM:   4    -0.116365020700E+04    0.18101E-05   -0.27890E-05  1716   0.641E-03    0.178E-02
RMM:   5    -0.116365020606E+04    0.94765E-06   -0.10459E-05  1564   0.453E-03    0.836E-03
RMM:   6    -0.116365020649E+04   -0.42999E-06   -0.41368E-06  1277   0.312E-03    0.328E-03
RMM:   7    -0.116365020673E+04   -0.23983E-06   -0.21188E-06   995   0.264E-03    0.180E-03
RMM:   8    -0.116365020687E+04   -0.14753E-06   -0.12088E-06   768   0.223E-03
  27 F= -.11636502E+04 E0= -.11636456E+04  d E =-.170186E-02  mag=     5.9596
       N       E                     dE             d eps       ncg     rms          rms(c)
DAV:   1    -0.116364862984E+04    0.15769E-02   -0.14210E+00  3216   0.139E+00    0.251E-01
RMM:   2    -0.116365185554E+04   -0.32257E-02   -0.35644E-02  3075   0.233E-01    0.216E-01
RMM:   3    -0.116365176247E+04    0.93076E-04   -0.15683E-03  3007   0.694E-02    0.135E-01
RMM:   4    -0.116365171838E+04    0.44092E-04   -0.39430E-04  2490   0.225E-02    0.108E-01
RMM:   5    -0.116365166201E+04    0.56365E-04   -0.17785E-04  1993   0.177E-02    0.218E-02
RMM:   6    -0.116365166622E+04   -0.42041E-05   -0.46183E-05  1770   0.111E-02    0.117E-02
RMM:   7    -0.116365166824E+04   -0.20209E-05   -0.23434E-05  1719   0.670E-03    0.924E-03
RMM:   8    -0.116365166934E+04   -0.11018E-05   -0.12982E-05  1574   0.583E-03
  28 F= -.11636517E+04 E0= -.11636471E+04  d E =-.146247E-02  mag=     5.9570
