       N       E                     dE             d eps       ncg     rms          rms(c)
DAV:   1     0.119015135306E+05    0.11902E+05   -0.42099E+05 12352   0.131E+03
DAV:   2     0.652226360815E+03   -0.11249E+05   -0.10048E+05 12296   0.375E+02
DAV:   3    -0.136146609559E+04   -0.20137E+04   -0.19407E+04 13232   0.165E+02
DAV:   4    -0.149551270381E+04   -0.13405E+03   -0.13171E+03 16232   0.445E+01
DAV:   5    -0.150405116988E+04   -0.85385E+01   -0.84981E+01 22240   0.102E+01    0.182E+02
RMM:   6    -0.116407570647E+04    0.33998E+03   -0.16022E+03 12487   0.348E+01    0.111E+02
RMM:   7    -0.114955613716E+04    0.14520E+02   -0.66615E+01 12846   0.110E+01    0.707E+01
RMM:   8    -0.115277001993E+04   -0.32139E+01   -0.24302E+01 13238   0.569E+00    0.436E+01
RMM:   9    -0.115731016286E+04   -0.45401E+01   -0.95693E+00 12829   0.334E+00    0.231E+01
RMM:  10    -0.115617686077E+04    0.11333E+01   -0.74091E+00 13960   0.287E+00    0.176E+01
RMM:  11    -0.115759711958E+04   -0.14203E+01   -0.14631E+00 13217   0.125E+00    0.990E+00
RMM:  12    -0.115860748294E+04   -0.10104E+01   -0.14832E+00 13237   0.111E+00    0.549E+00
RMM:  13    -0.115933209613E+04   -0.72461E+00   -0.51248E-01 13690   0.750E-01    0.528E+00
RMM:  14    -0.115968103394E+04   -0.34894E+00   -0.14449E-01 14630   0.436E-01    0.448E+00
RMM:  15    -0.115994182782E+04   -0.26079E+00   -0.32000E-01 12651   0.668E-01    0.261E+00
RMM:  16    -0.116002323301E+04   -0.81405E-01   -0.23202E-01 12999   0.581E-01    0.136E+00
RMM:  17    -0.116005426853E+04   -0.31036E-01   -0.12077E-01 13850   0.373E-01    0.723E-01
RMM:  18    -0.116006376192E+04   -0.94934E-02   -0.36306E-02 15443   0.164E-01    0.415E-01
RMM:  19    -0.116007078521E+04   -0.70233E-02   -0.80024E-03 14338   0.930E-02    0.269E-01
RMM:  20    -0.116007427897E+04   -0.34938E-02   -0.33369E-03 12931   0.612E-02    0.230E-01
RMM:  21    -0.116007661247E+04   -0.23335E-02   -0.15171E-03 11747   0.386E-02    0.221E-01
RMM:  22    -0.116007760037E+04   -0.98790E-03   -0.51300E-04  9989   0.218E-02    0.222E-01
RMM:  23    -0.116007455546E+04    0.30449E-02   -0.83537E-04  9809   0.391E-02    0.226E-01
RMM:  24    -0.116007099059E+04    0.35649E-02   -0.17219E-03  9944   0.475E-02    0.229E-01
RMM:  25    -0.116006747899E+04    0.35116E-02   -0.21779E-03  9983   0.513E-02    0.222E-01
RMM:  26    -0.116004862949E+04    0.18850E-01   -0.44119E-02 11694   0.255E-01    0.260E-01
RMM:  27    -0.116005054170E+04   -0.19122E-02   -0.65008E-03 11318   0.630E-02    0.251E-01
RMM:  28    -0.116005089692E+04   -0.35522E-03   -0.94498E-04  8387   0.171E-02    0.248E-01
RMM:  29    -0.116006048016E+04   -0.95832E-02   -0.13795E-02 11151   0.150E-01    0.191E-01
RMM:  30    -0.116007051399E+04   -0.10034E-01   -0.21531E-02 11343   0.164E-01    0.204E-01
RMM:  31    -0.116007745070E+04   -0.69367E-02   -0.12799E-02 11245   0.112E-01    0.251E-01
RMM:  32    -0.116007531006E+04    0.21406E-02   -0.11149E-03  9281   0.281E-02    0.249E-01
RMM:  33    -0.116006708076E+04    0.82293E-02   -0.64406E-03 10678   0.101E-01    0.200E-01
RMM:  34    -0.116005328973E+04    0.13791E-01   -0.31472E-02 11426   0.200E-01    0.212E-01
RMM:  35    -0.116004380219E+04    0.94875E-02   -0.27624E-02 11445   0.181E-01    0.285E-01
RMM:  36    -0.116004963106E+04   -0.58289E-02   -0.27955E-03  9930   0.589E-02    0.237E-01
RMM:  37    -0.116005404527E+04   -0.44142E-02   -0.61737E-03 10344   0.865E-02    0.243E-01
RMM:  38    -0.116005665350E+04   -0.26082E-02   -0.68820E-03 10477   0.845E-02    0.317E-01
RMM:  39    -0.116005548940E+04    0.11641E-02   -0.25032E-03  9771   0.595E-02    0.214E-01
RMM:  40    -0.116005064125E+04    0.48482E-02   -0.19983E-02 11205   0.155E-01
   1 F= -.11600506E+04 E0= -.11600506E+04  d E =-.116005E+04  mag=     6.0023
       N       E                     dE             d eps       ncg     rms          rms(c)
DAV:   1    -0.113856560787E+04    0.21490E+02   -0.16674E+03 12480   0.418E+01    0.315E+01
RMM:   2    -0.116340137780E+04   -0.24836E+02   -0.31108E+02 13626   0.110E+01    0.187E+01
RMM:   3    -0.115795975886E+04    0.54416E+01   -0.20273E+01 13763   0.407E+00    0.142E+01
RMM:   4    -0.115558623122E+04    0.23735E+01   -0.85886E+00 13991   0.155E+00    0.946E+00
RMM:   5    -0.115613571328E+04   -0.54948E+00   -0.20830E+00 13426   0.939E-01    0.878E+00
RMM:   6    -0.115551888302E+04    0.61683E+00   -0.11880E+00 12534   0.715E-01    0.416E+00
RMM:   7    -0.115554249791E+04   -0.23615E-01   -0.99769E-01 13819   0.659E-01    0.319E+00
RMM:   8    -0.115546461527E+04    0.77883E-01   -0.99335E-02 13237   0.276E-01    0.233E+00
RMM:   9    -0.115540702460E+04    0.57591E-01   -0.11612E-01 13891   0.227E-01    0.996E-01
RMM:  10    -0.115542899932E+04   -0.21975E-01   -0.70762E-02 13837   0.160E-01    0.122E+00
RMM:  11    -0.115542898474E+04    0.14575E-04   -0.12927E-02 12860   0.106E-01    0.765E-01
RMM:  12    -0.115544124713E+04   -0.12262E-01   -0.13124E-02 12955   0.123E-01    0.655E-01
RMM:  13    -0.115545259683E+04   -0.11350E-01   -0.92000E-03 12938   0.103E-01    0.488E-01
RMM:  14    -0.115546492282E+04   -0.12326E-01   -0.81039E-03 11711   0.978E-02    0.393E-01
RMM:  15    -0.115547505535E+04   -0.10133E-01   -0.60086E-03 11258   0.793E-02    0.398E-01
RMM:  16    -0.115547957412E+04   -0.45188E-02   -0.22107E-03 10465   0.418E-02    0.396E-01
RMM:  17    -0.115546759861E+04    0.11976E-01   -0.25554E-03 10344   0.659E-02    0.397E-01
RMM:  18    -0.115545091938E+04    0.16679E-01   -0.79274E-03 10796   0.102E-01    0.399E-01
RMM:  19    -0.115544872378E+04    0.21956E-02   -0.16239E-03  9502   0.373E-02    0.393E-01
RMM:  20    -0.115543307965E+04    0.15644E-01   -0.71171E-03 10748   0.931E-02    0.397E-01
RMM:  21    -0.115538335671E+04    0.49723E-01   -0.66622E-02 11732   0.287E-01    0.533E-01
RMM:  22    -0.115539172590E+04   -0.83692E-02   -0.45853E-03 10441   0.538E-02    0.488E-01
RMM:  23    -0.115542439990E+04   -0.32674E-01   -0.26190E-02 11553   0.198E-01    0.447E-01
RMM:  24    -0.115547419780E+04   -0.49798E-01   -0.13202E-01 12000   0.412E-01    0.494E-01
RMM:  25    -0.115549454198E+04   -0.20344E-01   -0.11028E-01 12058   0.363E-01    0.712E-01
RMM:  26    -0.115550360622E+04   -0.90642E-02   -0.25470E-02 12560   0.124E-01    0.705E-01
RMM:  27    -0.115549448313E+04    0.91231E-02   -0.20568E-02 11216   0.125E-01    0.874E-01
RMM:  28    -0.115551005826E+04   -0.15575E-01   -0.32443E-03 10136   0.763E-02    0.702E-01
RMM:  29    -0.115551273518E+04   -0.26769E-02   -0.44535E-03 10035   0.684E-02    0.773E-01
RMM:  30    -0.115552583763E+04   -0.13102E-01   -0.57664E-03 10438   0.744E-02    0.770E-01
RMM:  31    -0.115557501412E+04   -0.49176E-01   -0.16527E-02 11410   0.181E-01    0.481E-01
RMM:  32    -0.115558200376E+04   -0.69896E-02   -0.68526E-03 10565   0.932E-02    0.407E-01
RMM:  33    -0.115557881292E+04    0.31908E-02   -0.59115E-04  8811   0.221E-02    0.447E-01
RMM:  34    -0.115557332742E+04    0.54855E-02   -0.61514E-04  8229   0.292E-02    0.472E-01
RMM:  35    -0.115556468907E+04    0.86383E-02   -0.22571E-03  9410   0.533E-02    0.529E-01
RMM:  36    -0.115560060521E+04   -0.35916E-01   -0.27846E-02 11366   0.192E-01    0.348E-01
RMM:  37    -0.115562733974E+04   -0.26735E-01   -0.29758E-02 11420   0.189E-01    0.342E-01
RMM:  38    -0.115563645426E+04   -0.91145E-02   -0.11135E-02 11243   0.903E-02    0.328E-01
RMM:  39    -0.115564076592E+04   -0.43117E-02   -0.25422E-03  9491   0.365E-02    0.308E-01
RMM:  40    -0.115564190392E+04   -0.11380E-02   -0.41210E-04  8032   0.165E-02
   2 F= -.11556419E+04 E0= -.11556328E+04  d E =0.440874E+01  mag=     5.9834
       N       E                     dE             d eps       ncg     rms          rms(c)
DAV:   1    -0.115797633927E+04   -0.23356E+01   -0.61123E+02 12432   0.200E+01    0.188E+01
RMM:   2    -0.116022878322E+04   -0.22524E+01   -0.30140E+01 12293   0.543E+00    0.170E+01
RMM:   3    -0.116029008778E+04   -0.61305E-01   -0.22827E+00 13140   0.166E+00    0.116E+01
RMM:   4    -0.115983752222E+04    0.45257E+00   -0.17293E+00 12954   0.117E+00    0.500E+00
RMM:   5    -0.115968538898E+04    0.15213E+00   -0.54712E-01 13563   0.712E-01    0.154E+00
RMM:   6    -0.115969770794E+04   -0.12319E-01   -0.81419E-02 13170   0.283E-01    0.113E+00
RMM:   7    -0.115970305393E+04   -0.53460E-02   -0.23650E-02 14395   0.150E-01    0.654E-01
RMM:   8    -0.115971347870E+04   -0.10425E-01   -0.12976E-02 13523   0.116E-01    0.379E-01
RMM:   9    -0.115972034622E+04   -0.68675E-02   -0.62159E-03 13185   0.797E-02    0.299E-01
RMM:  10    -0.115972603084E+04   -0.56846E-02   -0.31763E-03 12090   0.557E-02    0.267E-01
RMM:  11    -0.115973380710E+04   -0.77763E-02   -0.43422E-03 11312   0.674E-02    0.241E-01
RMM:  12    -0.115974492286E+04   -0.11116E-01   -0.91783E-03 11045   0.100E-01    0.235E-01
RMM:  13    -0.115975238992E+04   -0.74671E-02   -0.75266E-03 11185   0.850E-02    0.217E-01
RMM:  14    -0.115976288613E+04   -0.10496E-01   -0.14207E-02 11284   0.125E-01    0.179E-01
RMM:  15    -0.115976659808E+04   -0.37119E-02   -0.50863E-03 11046   0.598E-02    0.188E-01
RMM:  16    -0.115977104924E+04   -0.44512E-02   -0.38472E-03 10319   0.607E-02    0.154E-01
RMM:  17    -0.115977838279E+04   -0.73336E-02   -0.11158E-02 11089   0.111E-01    0.140E-01
RMM:  18    -0.115978378253E+04   -0.53997E-02   -0.13368E-02 10854   0.117E-01    0.124E-01
RMM:  19    -0.115978413382E+04   -0.35130E-03   -0.26139E-03 10000   0.484E-02    0.122E-01
RMM:  20    -0.115978910412E+04   -0.49703E-02   -0.12792E-02 10876   0.117E-01    0.773E-02
RMM:  21    -0.115979101215E+04   -0.19080E-02   -0.57237E-03 10434   0.682E-02    0.610E-02
RMM:  22    -0.115979228810E+04   -0.12760E-02   -0.40580E-03  9960   0.599E-02    0.550E-02
RMM:  23    -0.115979299987E+04   -0.71176E-03   -0.29796E-03  9847   0.520E-02    0.621E-02
RMM:  24    -0.115979377767E+04   -0.77780E-03   -0.30177E-03  9773   0.519E-02    0.438E-02
RMM:  25    -0.115979422709E+04   -0.44942E-03   -0.21583E-03  9676   0.427E-02    0.383E-02
RMM:  26    -0.115979420307E+04    0.24015E-04   -0.12802E-03  9196   0.352E-02    0.673E-02
RMM:  27    -0.115979449462E+04   -0.29155E-03   -0.63369E-04  8122   0.214E-02    0.535E-02
RMM:  28    -0.115979460946E+04   -0.11484E-03   -0.35411E-04  7683   0.171E-02    0.512E-02
RMM:  29    -0.115979481343E+04   -0.20397E-03   -0.18448E-03  9624   0.425E-02    0.407E-02
RMM:  30    -0.115979498611E+04   -0.17268E-03   -0.53172E-04  8001   0.210E-02    0.325E-02
RMM:  31    -0.115979505617E+04   -0.70062E-04   -0.37324E-04  7676   0.182E-02
   3 F= -.11597951E+04 E0= -.11597867E+04  d E =-.415315E+01  mag=     6.0005
       N       E                     dE             d eps       ncg     rms          rms(c)
DAV:   1    -0.116036328174E+04   -0.56830E+00   -0.27935E+02 12528   0.170E+01    0.574E+00
RMM:   2    -0.116128897332E+04   -0.92569E+00   -0.10848E+01 12310   0.330E+00    0.707E+00
RMM:   3    -0.116119434992E+04    0.94623E-01   -0.39197E-01 13585   0.815E-01    0.553E+00
RMM:   4    -0.116116236244E+04    0.31987E-01   -0.20933E-01 13152   0.441E-01    0.291E+00
RMM:   5    -0.116112314188E+04    0.39221E-01   -0.92390E-02 12575   0.294E-01    0.675E-01
RMM:   6    -0.116111946623E+04    0.36757E-02   -0.76858E-03 12935   0.100E-01    0.380E-01
RMM:   7    -0.116111851234E+04    0.95389E-03   -0.38761E-03 12771   0.500E-02    0.183E-01
RMM:   8    -0.116111839392E+04    0.11842E-03   -0.76786E-04 10889   0.292E-02    0.876E-02
RMM:   9    -0.116111839073E+04    0.31933E-05   -0.28469E-04  8945   0.177E-02
   4 F= -.11611184E+04 E0= -.11611110E+04  d E =-.132333E+01  mag=     5.9486
       N       E                     dE             d eps       ncg     rms          rms(c)
DAV:   1    -0.116162546865E+04   -0.50707E+00   -0.58955E+01 12872   0.724E+00    0.263E+00
RMM:   2    -0.116173763980E+04   -0.11217E+00   -0.15597E+00 12299   0.136E+00    0.184E+00
RMM:   3    -0.116172561652E+04    0.12023E-01   -0.99963E-02 12703   0.438E-01    0.101E+00
RMM:   4    -0.116171643438E+04    0.91821E-02   -0.38370E-02 13120   0.187E-01    0.550E-01
RMM:   5    -0.116171412424E+04    0.23101E-02   -0.70473E-03 12935   0.955E-02    0.243E-01
RMM:   6    -0.116171414143E+04   -0.17187E-04   -0.14602E-03 13877   0.322E-02    0.162E-01
RMM:   7    -0.116171420617E+04   -0.64741E-04   -0.50937E-04 11196   0.214E-02    0.677E-02
RMM:   8    -0.116171422946E+04   -0.23292E-04   -0.15258E-04  8567   0.147E-02
   5 F= -.11617142E+04 E0= -.11617129E+04  d E =-.595839E+00  mag=     5.9853
       N       E                     dE             d eps       ncg     rms          rms(c)
DAV:   1    -0.116199545793E+04   -0.28125E+00   -0.31453E+01 12752   0.537E+00    0.207E+00
RMM:   2    -0.116206003231E+04   -0.64574E-01   -0.85793E-01 12306   0.102E+00    0.168E+00
RMM:   3    -0.116205489896E+04    0.51333E-02   -0.57454E-02 12823   0.339E-01    0.965E-01
RMM:   4    -0.116205102246E+04    0.38765E-02   -0.21176E-02 12924   0.142E-01    0.487E-01
RMM:   5    -0.116204951943E+04    0.15030E-02   -0.41827E-03 12600   0.726E-02    0.173E-01
RMM:   6    -0.116204956167E+04   -0.42248E-04   -0.71530E-04 11521   0.232E-02    0.101E-01
RMM:   7    -0.116204959549E+04   -0.33817E-04   -0.22569E-04  9058   0.156E-02    0.502E-02
RMM:   8    -0.116204961733E+04   -0.21838E-04   -0.10201E-04  8172   0.112E-02
   6 F= -.11620496E+04 E0= -.11620496E+04  d E =-.335388E+00  mag=     5.9985
       N       E                     dE             d eps       ncg     rms          rms(c)
DAV:   1    -0.116217422790E+04   -0.12463E+00   -0.39322E+01 12520   0.624E+00    0.242E+00
RMM:   2    -0.116226737688E+04   -0.93149E-01   -0.11865E+00 12288   0.122E+00    0.216E+00
RMM:   3    -0.116225921270E+04    0.81642E-02   -0.74220E-02 13425   0.377E-01    0.139E+00
RMM:   4    -0.116225464337E+04    0.45693E-02   -0.31706E-02 13041   0.177E-01    0.597E-01
RMM:   5    -0.116225255539E+04    0.20880E-02   -0.60598E-03 13635   0.850E-02    0.188E-01
RMM:   6    -0.116225257206E+04   -0.16668E-04   -0.93558E-04 12711   0.274E-02    0.117E-01
RMM:   7    -0.116225263252E+04   -0.60461E-04   -0.36086E-04 10202   0.186E-02    0.550E-02
RMM:   8    -0.116225266253E+04   -0.30012E-04   -0.15336E-04  8438   0.129E-02
   7 F= -.11622527E+04 E0= -.11622527E+04  d E =-.203045E+00  mag=     5.9999
       N       E                     dE             d eps       ncg     rms          rms(c)
DAV:   1    -0.116225231966E+04    0.31286E-03   -0.15290E+01 12880   0.431E+00    0.138E+00
RMM:   2    -0.116229059413E+04   -0.38274E-01   -0.45281E-01 12309   0.817E-01    0.127E+00
RMM:   3    -0.116228886134E+04    0.17328E-02   -0.24276E-02 13359   0.251E-01    0.891E-01
RMM:   4    -0.116228769403E+04    0.11673E-02   -0.97427E-03 13609   0.104E-01    0.422E-01
RMM:   5    -0.116228707017E+04    0.62386E-03   -0.25052E-03 13557   0.516E-02    0.119E-01
RMM:   6    -0.116228705195E+04    0.18223E-04   -0.30997E-04  9454   0.184E-02    0.642E-02
RMM:   7    -0.116228706798E+04   -0.16028E-04   -0.14165E-04  8071   0.133E-02    0.340E-02
RMM:   8    -0.116228709085E+04   -0.22870E-04   -0.78246E-05  7507   0.111E-02
   8 F= -.11622871E+04 E0= -.11622871E+04  d E =-.344283E-01  mag=     6.0000
       N       E                     dE             d eps       ncg     rms          rms(c)
DAV:   1    -0.116228817012E+04   -0.11021E-02   -0.68638E+00 12832   0.286E+00    0.910E-01
RMM:   2    -0.116230414301E+04   -0.15973E-01   -0.20565E-01 12324   0.540E-01    0.951E-01
RMM:   3    -0.116230305669E+04    0.10863E-02   -0.10575E-02 13030   0.163E-01    0.706E-01
RMM:   4    -0.116230253959E+04    0.51711E-03   -0.50510E-03 12617   0.715E-02    0.364E-01
RMM:   5    -0.116230190880E+04    0.63079E-03   -0.14383E-03 11634   0.405E-02    0.822E-02
RMM:   6    -0.116230188723E+04    0.21560E-04   -0.16451E-04  8391   0.153E-02    0.522E-02
RMM:   7    -0.116230188562E+04    0.16102E-05   -0.67858E-05  7474   0.103E-02    0.263E-02
RMM:   8    -0.116230189353E+04   -0.79091E-05   -0.42440E-05  7198   0.855E-03
   9 F= -.11623019E+04 E0= -.11623019E+04  d E =-.148027E-01  mag=     5.9999
       N       E                     dE             d eps       ncg     rms          rms(c)
DAV:   1    -0.116230838087E+04   -0.64952E-02   -0.89738E+00 12784   0.341E+00    0.740E-01
RMM:   2    -0.116232817459E+04   -0.19794E-01   -0.22570E-01 12342   0.582E-01    0.559E-01
RMM:   3    -0.116232786879E+04    0.30580E-03   -0.12044E-02 12720   0.204E-01    0.368E-01
RMM:   4    -0.116232737603E+04    0.49277E-03   -0.38583E-03 14760   0.662E-02    0.208E-01
RMM:   5    -0.116232721905E+04    0.15697E-03   -0.95344E-04 12512   0.293E-02    0.508E-02
RMM:   6    -0.116232722687E+04   -0.78229E-05   -0.12183E-04  7967   0.150E-02    0.335E-02
RMM:   7    -0.116232724370E+04   -0.16827E-04   -0.82595E-05  7517   0.106E-02    0.179E-02
RMM:   8    -0.116232725394E+04   -0.10243E-04   -0.43088E-05  7216   0.890E-03
  10 F= -.11623273E+04 E0= -.11623272E+04  d E =-.253604E-01  mag=     6.0000
       N       E                     dE             d eps       ncg     rms          rms(c)
DAV:   1    -0.116230501547E+04    0.22228E-01   -0.20108E+01 12624   0.511E+00    0.990E-01
RMM:   2    -0.116234952711E+04   -0.44512E-01   -0.49649E-01 12348   0.863E-01    0.768E-01
RMM:   3    -0.116234907006E+04    0.45705E-03   -0.25929E-02 12785   0.301E-01    0.519E-01
RMM:   4    -0.116234817793E+04    0.89214E-03   -0.77627E-03 15781   0.944E-02    0.309E-01
RMM:   5    -0.116234781444E+04    0.36349E-03   -0.23268E-03 14515   0.429E-02    0.624E-02
RMM:   6    -0.116234782213E+04   -0.76884E-05   -0.28462E-04  9781   0.208E-02    0.421E-02
RMM:   7    -0.116234784987E+04   -0.27741E-04   -0.19206E-04  8402   0.131E-02    0.227E-02
RMM:   8    -0.116234786638E+04   -0.16508E-04   -0.84842E-05  7731   0.111E-02
  11 F= -.11623479E+04 E0= -.11623479E+04  d E =-.206124E-01  mag=     6.0000
       N       E                     dE             d eps       ncg     rms          rms(c)
DAV:   1    -0.116234800477E+04   -0.15491E-03   -0.66997E+00 12752   0.293E+00    0.638E-01
RMM:   2    -0.116236334570E+04   -0.15341E-01   -0.17538E-01 12326   0.511E-01    0.634E-01
RMM:   3    -0.116236299891E+04    0.34679E-03   -0.88440E-03 12840   0.169E-01    0.463E-01
RMM:   4    -0.116236277312E+04    0.22579E-03   -0.30764E-03 14186   0.578E-02    0.284E-01
RMM:   5    -0.116236244118E+04    0.33194E-03   -0.12317E-03 12464   0.323E-02    0.488E-02
RMM:   6    -0.116236243475E+04    0.64315E-05   -0.11980E-04  7983   0.163E-02    0.348E-02
RMM:   7    -0.116236244349E+04   -0.87451E-05   -0.85745E-05  7476   0.986E-03    0.198E-02
RMM:   8    -0.116236245589E+04   -0.12397E-04   -0.43353E-05  7175   0.945E-03
  12 F= -.11623625E+04 E0= -.11623624E+04  d E =-.145895E-01  mag=     5.9999
       N       E                     dE             d eps       ncg     rms          rms(c)
DAV:   1    -0.116235949631E+04    0.29472E-02   -0.59957E+00 12816   0.278E+00    0.471E-01
RMM:   2    -0.116237257961E+04   -0.13083E-01   -0.14284E-01 12507   0.461E-01    0.311E-01
RMM:   3    -0.116237246293E+04    0.11668E-03   -0.71699E-03 12558   0.162E-01    0.204E-01
RMM:   4    -0.116237218641E+04    0.27652E-03   -0.21292E-03 14398   0.505E-02    0.108E-01
RMM:   5    -0.116237216277E+04    0.23639E-04   -0.46865E-04 11216   0.219E-02    0.318E-02
RMM:   6    -0.116237217744E+04   -0.14668E-04   -0.78142E-05  7504   0.136E-02    0.208E-02
RMM:   7    -0.116237219636E+04   -0.18921E-04   -0.78478E-05  7377   0.989E-03    0.155E-02
RMM:   8    -0.116237220945E+04   -0.13085E-04   -0.36117E-05  7039   0.854E-03
  13 F= -.11623722E+04 E0= -.11623722E+04  d E =-.975356E-02  mag=     5.9999
       N       E                     dE             d eps       ncg     rms          rms(c)
DAV:   1    -0.116236975368E+04    0.24427E-02   -0.45961E+00 12840   0.244E+00    0.423E-01
RMM:   2    -0.116237992621E+04   -0.10173E-01   -0.11015E-01 12583   0.404E-01    0.275E-01
RMM:   3    -0.116237983006E+04    0.96150E-04   -0.54835E-03 12723   0.139E-01    0.178E-01
RMM:   4    -0.116237960019E+04    0.22987E-03   -0.15305E-03 13924   0.436E-02    0.922E-02
RMM:   5    -0.116237959943E+04    0.76562E-06   -0.37303E-04 10422   0.207E-02    0.283E-02
RMM:   6    -0.116237961293E+04   -0.13508E-04   -0.65611E-05  7350   0.130E-02    0.195E-02
RMM:   7    -0.116237963000E+04   -0.17064E-04   -0.66217E-05  7255   0.954E-03    0.155E-02
RMM:   8    -0.116237964431E+04   -0.14309E-04   -0.35589E-05  6991   0.845E-03
  14 F= -.11623796E+04 E0= -.11623796E+04  d E =-.743486E-02  mag=     5.9999
       N       E                     dE             d eps       ncg     rms          rms(c)
DAV:   1    -0.116237846344E+04    0.11666E-02   -0.30441E+00 12800   0.199E+00    0.342E-01
RMM:   2    -0.116238526454E+04   -0.68011E-02   -0.73347E-02 12727   0.330E-01    0.228E-01
RMM:   3    -0.116238517895E+04    0.85589E-04   -0.35077E-03 12779   0.109E-01    0.147E-01
RMM:   4    -0.116238503347E+04    0.14548E-03   -0.94605E-04 12917   0.352E-02    0.787E-02
RMM:   5    -0.116238503030E+04    0.31747E-05   -0.25861E-04  8961   0.195E-02    0.243E-02
RMM:   6    -0.116238504290E+04   -0.12604E-04   -0.57577E-05  7235   0.123E-02    0.177E-02
RMM:   7    -0.116238505346E+04   -0.10556E-04   -0.44025E-05  7074   0.887E-03    0.171E-02
RMM:   8    -0.116238506594E+04   -0.12485E-04   -0.29264E-05  6898   0.796E-03
  15 F= -.11623851E+04 E0= -.11623851E+04  d E =-.542164E-02  mag=     5.9999
       N       E                     dE             d eps       ncg     rms          rms(c)
DAV:   1    -0.116238216308E+04    0.28904E-02   -0.38562E+00 12736   0.224E+00    0.396E-01
RMM:   2    -0.116239093715E+04   -0.87741E-02   -0.91904E-02 12678   0.371E-01    0.244E-01
RMM:   3    -0.116239091198E+04    0.25169E-04   -0.45244E-03 12716   0.126E-01    0.157E-01
RMM:   4    -0.116239074186E+04    0.17012E-03   -0.11750E-03 13508   0.391E-02    0.765E-02
RMM:   5    -0.116239076565E+04   -0.23784E-04   -0.28044E-04  9015   0.191E-02    0.235E-02
RMM:   6    -0.116239077903E+04   -0.13389E-04   -0.59302E-05  7238   0.119E-02    0.162E-02
RMM:   7    -0.116239079569E+04   -0.16651E-04   -0.52729E-05  7109   0.941E-03    0.132E-02
RMM:   8    -0.116239080965E+04   -0.13966E-04   -0.33884E-05  6873   0.789E-03
  16 F= -.11623908E+04 E0= -.11623908E+04  d E =-.574371E-02  mag=     5.9999
       N       E                     dE             d eps       ncg     rms          rms(c)
DAV:   1    -0.116239080129E+04   -0.56005E-05   -0.14191E+00 12944   0.136E+00    0.232E-01
RMM:   2    -0.116239401645E+04   -0.32152E-02   -0.34174E-02 12764   0.226E-01    0.146E-01
RMM:   3    -0.116239398164E+04    0.34812E-04   -0.16320E-03 12255   0.731E-02    0.945E-02
RMM:   4    -0.116239392158E+04    0.60056E-04   -0.42826E-04 10223   0.243E-02    0.458E-02
RMM:   5    -0.116239393523E+04   -0.13644E-04   -0.96475E-05  7279   0.146E-02    0.169E-02
RMM:   6    -0.116239394631E+04   -0.11084E-04   -0.39348E-05  7039   0.918E-03    0.135E-02
RMM:   7    -0.116239395555E+04   -0.92400E-05   -0.25252E-05  6839   0.753E-03    0.122E-02
RMM:   8    -0.116239396850E+04   -0.12950E-04   -0.21111E-05  6757   0.621E-03
  17 F= -.11623940E+04 E0= -.11623940E+04  d E =-.315885E-02  mag=     5.9999
       N       E                     dE             d eps       ncg     rms          rms(c)
DAV:   1    -0.116239350315E+04    0.45240E-03   -0.17242E+00 12752   0.150E+00    0.261E-01
RMM:   2    -0.116239740105E+04   -0.38979E-02   -0.41252E-02 12726   0.249E-01    0.161E-01
RMM:   3    -0.116239737536E+04    0.25688E-04   -0.20069E-03 12373   0.827E-02    0.105E-01
RMM:   4    -0.116239730401E+04    0.71348E-04   -0.51574E-04 10880   0.267E-02    0.505E-02
RMM:   5    -0.116239731957E+04   -0.15559E-04   -0.11077E-04  7302   0.153E-02    0.182E-02
RMM:   6    -0.116239733116E+04   -0.11591E-04   -0.44044E-05  7095   0.977E-03    0.134E-02
RMM:   7    -0.116239733963E+04   -0.84655E-05   -0.26264E-05  6860   0.781E-03    0.123E-02
RMM:   8    -0.116239735058E+04   -0.10948E-04   -0.21143E-05  6708   0.639E-03
  18 F= -.11623974E+04 E0= -.11623973E+04  d E =-.338208E-02  mag=     5.9999
