       N       E                     dE             d eps       ncg     rms          rms(c)
DAV:   1     0.118853712819E+05    0.11885E+05   -0.42095E+05 12352   0.131E+03
DAV:   2     0.642138221448E+03   -0.11243E+05   -0.10044E+05 12304   0.375E+02
DAV:   3    -0.136452224118E+04   -0.20067E+04   -0.19326E+04 13192   0.165E+02
DAV:   4    -0.149978275863E+04   -0.13526E+03   -0.13302E+03 16192   0.444E+01
DAV:   5    -0.150824969333E+04   -0.84669E+01   -0.84294E+01 22176   0.101E+01    0.180E+02
RMM:   6    -0.116473621632E+04    0.34351E+03   -0.15893E+03 12510   0.344E+01    0.109E+02
RMM:   7    -0.115026312126E+04    0.14473E+02   -0.59769E+01 12813   0.110E+01    0.637E+01
RMM:   8    -0.115401470262E+04   -0.37516E+01   -0.20634E+01 13644   0.520E+00    0.294E+01
RMM:   9    -0.115755866332E+04   -0.35440E+01   -0.50670E+00 13394   0.264E+00    0.849E+00
RMM:  10    -0.115870297143E+04   -0.11443E+01   -0.14218E+00 14548   0.114E+00    0.566E+00
RMM:  11    -0.115985769478E+04   -0.11547E+01   -0.14724E+00 14545   0.958E-01    0.371E+00
RMM:  12    -0.116042995773E+04   -0.57226E+00   -0.60050E-01 13440   0.757E-01    0.190E+00
RMM:  13    -0.116053764142E+04   -0.10768E+00   -0.16836E-01 15697   0.381E-01    0.125E+00
RMM:  14    -0.116058618676E+04   -0.48545E-01   -0.88707E-02 14436   0.259E-01    0.741E-01
RMM:  15    -0.116059419346E+04   -0.80067E-02   -0.25385E-02 16389   0.138E-01    0.375E-01
RMM:  16    -0.116059563910E+04   -0.14456E-02   -0.91709E-03 16292   0.763E-02    0.190E-01
RMM:  17    -0.116059605590E+04   -0.41680E-03   -0.25279E-03 14464   0.439E-02    0.970E-02
RMM:  18    -0.116059613217E+04   -0.76274E-04   -0.11308E-03 12602   0.248E-02    0.461E-02
RMM:  19    -0.116059619723E+04   -0.65058E-04   -0.53481E-04 10307   0.177E-02
   1 F= -.11605962E+04 E0= -.11605962E+04  d E =-.116060E+04  mag=     8.0029
       N       E                     dE             d eps       ncg     rms          rms(c)
DAV:   1    -0.116063998414E+04   -0.43852E-01   -0.32810E+02 14192   0.205E+01    0.839E+00
RMM:   2    -0.116135771126E+04   -0.71773E+00   -0.13750E+01 12288   0.451E+00    0.818E+00
RMM:   3    -0.116127963570E+04    0.78076E-01   -0.78470E-01 13875   0.125E+00    0.509E+00
RMM:   4    -0.116114679378E+04    0.13284E+00   -0.37216E-01 13635   0.617E-01    0.251E+00
RMM:   5    -0.116113751225E+04    0.92815E-02   -0.10868E-01 13510   0.389E-01    0.140E+00
RMM:   6    -0.116114519014E+04   -0.76779E-02   -0.21857E-02 15775   0.136E-01    0.177E+00
RMM:   7    -0.116114341987E+04    0.17703E-02   -0.28726E-03 17862   0.498E-02    0.167E+00
RMM:   8    -0.116115096425E+04   -0.75444E-02   -0.13162E-02 13935   0.104E-01    0.290E+00
RMM:   9    -0.116114345203E+04    0.75122E-02   -0.36482E-03 13313   0.576E-02    0.228E+00
RMM:  10    -0.116116777537E+04   -0.24323E-01   -0.37072E-03 11582   0.652E-02    0.438E+00
RMM:  11    -0.116118772786E+04   -0.19952E-01   -0.26613E-02 12188   0.157E-01    0.642E+00
RMM:  12    -0.116114658547E+04    0.41142E-01   -0.28064E-03 11353   0.828E-02    0.365E+00
RMM:  13    -0.116120431141E+04   -0.57726E-01   -0.33528E-03 10927   0.720E-02    0.730E+00
RMM:  14    -0.116116706995E+04    0.37241E-01   -0.48613E-03 11700   0.129E-01    0.567E+00
RMM:  15    -0.116117581780E+04   -0.87479E-02   -0.10505E-03 10221   0.675E-02    0.582E+00
RMM:  16    -0.116116396657E+04    0.11851E-01   -0.74501E-04  9918   0.483E-02    0.494E+00
RMM:  17    -0.116115011474E+04    0.13852E-01   -0.36591E-03 11249   0.788E-02    0.356E+00
RMM:  18    -0.116115058972E+04   -0.47499E-03   -0.36248E-04  8804   0.375E-02    0.350E+00
RMM:  19    -0.116113876272E+04    0.11827E-01   -0.11588E-03 10200   0.423E-02    0.208E+00
RMM:  20    -0.116113518560E+04    0.35771E-02   -0.10274E-03 10623   0.405E-02    0.140E+00
RMM:  21    -0.116113328071E+04    0.19049E-02   -0.68176E-04 10206   0.398E-02    0.109E+00
RMM:  22    -0.116113325981E+04    0.20898E-04   -0.33365E-04  8796   0.298E-02
   2 F= -.11611333E+04 E0= -.11611241E+04  d E =-.537063E+00  mag=     7.8667
       N       E                     dE             d eps       ncg     rms          rms(c)
DAV:   1    -0.116131329300E+04   -0.18001E+00   -0.41445E+01 13648   0.741E+00    0.300E+00
RMM:   2    -0.116139627056E+04   -0.82978E-01   -0.14960E+00 12288   0.156E+00    0.291E+00
RMM:   3    -0.116138593360E+04    0.10337E-01   -0.78322E-02 13402   0.422E-01    0.194E+00
RMM:   4    -0.116137270849E+04    0.13225E-01   -0.50470E-02 13185   0.229E-01    0.951E-01
RMM:   5    -0.116137082686E+04    0.18816E-02   -0.14321E-02 12813   0.129E-01    0.445E-01
RMM:   6    -0.116137002294E+04    0.80391E-03   -0.19043E-03 13118   0.424E-02    0.197E-01
RMM:   7    -0.116136990849E+04    0.11446E-03   -0.58130E-04 10970   0.216E-02    0.124E-01
RMM:   8    -0.116136990840E+04    0.88607E-07   -0.19480E-04  8470   0.174E-02
   3 F= -.11613699E+04 E0= -.11613699E+04  d E =-.773711E+00  mag=     7.9897
       N       E                     dE             d eps       ncg     rms          rms(c)
DAV:   1    -0.116150053643E+04   -0.13063E+00   -0.80691E+01 12960   0.105E+01    0.259E+00
RMM:   2    -0.116166486326E+04   -0.16433E+00   -0.24044E+00 12288   0.196E+00    0.213E+00
RMM:   3    -0.116165328188E+04    0.11581E-01   -0.10930E-01 13419   0.490E-01    0.136E+00
RMM:   4    -0.116164108285E+04    0.12199E-01   -0.37161E-02 14118   0.200E-01    0.768E-01
RMM:   5    -0.116163777674E+04    0.33061E-02   -0.12247E-02 13877   0.118E-01    0.264E-01
RMM:   6    -0.116163781776E+04   -0.41013E-04   -0.18341E-03 15998   0.454E-02    0.170E-01
RMM:   7    -0.116163779613E+04    0.21624E-04   -0.70481E-04 13845   0.216E-02    0.100E-01
RMM:   8    -0.116163782468E+04   -0.28546E-04   -0.34899E-04 10344   0.189E-02
   4 F= -.11616378E+04 E0= -.11616378E+04  d E =-.267916E+00  mag=     7.9992
       N       E                     dE             d eps       ncg     rms          rms(c)
DAV:   1    -0.116163934573E+04   -0.15496E-02   -0.16351E+00 14136   0.150E+00    0.367E-01
RMM:   2    -0.116164278740E+04   -0.34417E-02   -0.49812E-02 12288   0.280E-01    0.310E-01
RMM:   3    -0.116164254043E+04    0.24697E-03   -0.24042E-03 13327   0.722E-02    0.200E-01
RMM:   4    -0.116164229960E+04    0.24083E-03   -0.92968E-04 11798   0.304E-02    0.114E-01
RMM:   5    -0.116164222285E+04    0.76751E-04   -0.22111E-04  8636   0.185E-02    0.433E-02
RMM:   6    -0.116164222726E+04   -0.44097E-05   -0.53420E-05  7588   0.110E-02    0.219E-02
RMM:   7    -0.116164222894E+04   -0.16845E-05   -0.28629E-05  7301   0.748E-03    0.195E-02
RMM:   8    -0.116164223026E+04   -0.13152E-05   -0.16336E-05  7100   0.602E-03
   5 F= -.11616422E+04 E0= -.11616422E+04  d E =-.272322E+00  mag=     7.9996
       N       E                     dE             d eps       ncg     rms          rms(c)
DAV:   1    -0.116164713715E+04   -0.49082E-02   -0.36370E+01 12672   0.713E+00    0.194E+00
RMM:   2    -0.116173572616E+04   -0.88589E-01   -0.10816E+00 12288   0.131E+00    0.171E+00
RMM:   3    -0.116173204646E+04    0.36797E-02   -0.48373E-02 12966   0.358E-01    0.111E+00
RMM:   4    -0.116172757169E+04    0.44748E-02   -0.20200E-02 14193   0.146E-01    0.588E-01
RMM:   5    -0.116172591058E+04    0.16611E-02   -0.62606E-03 13692   0.857E-02    0.159E-01
RMM:   6    -0.116172592247E+04   -0.11891E-04   -0.87933E-04 13334   0.299E-02    0.887E-02
RMM:   7    -0.116172592601E+04   -0.35421E-05   -0.34060E-04 10193   0.156E-02    0.526E-02
RMM:   8    -0.116172593627E+04   -0.10257E-04   -0.19814E-04  8757   0.146E-02
   6 F= -.11617259E+04 E0= -.11617258E+04  d E =-.837060E-01  mag=     7.9988
       N       E                     dE             d eps       ncg     rms          rms(c)
DAV:   1    -0.116172591226E+04    0.13749E-04   -0.16281E-01 14304   0.478E-01    0.129E-01
RMM:   2    -0.116172632455E+04   -0.41228E-03   -0.50219E-03 12224   0.887E-02    0.116E-01
RMM:   3    -0.116172630205E+04    0.22498E-04   -0.20125E-04  8305   0.256E-02    0.758E-02
RMM:   4    -0.116172628410E+04    0.17951E-04   -0.10277E-04  7346   0.126E-02    0.391E-02
RMM:   5    -0.116172628087E+04    0.32248E-05   -0.41892E-05  7087   0.917E-03    0.137E-02
RMM:   6    -0.116172628265E+04   -0.17807E-05   -0.18018E-05  6878   0.598E-03    0.936E-03
RMM:   7    -0.116172628365E+04   -0.99979E-06   -0.10693E-05  6400   0.479E-03    0.581E-03
RMM:   8    -0.116172628438E+04   -0.72377E-06   -0.73602E-06  5966   0.375E-03
   7 F= -.11617263E+04 E0= -.11617261E+04  d E =-.840541E-01  mag=     7.9987
       N       E                     dE             d eps       ncg     rms          rms(c)
DAV:   1    -0.116172622846E+04    0.55194E-04   -0.16908E+01 12816   0.486E+00    0.115E+00
RMM:   2    -0.116176710217E+04   -0.40874E-01   -0.46270E-01 12298   0.864E-01    0.905E-01
RMM:   3    -0.116176675431E+04    0.34786E-03   -0.20724E-02 12958   0.240E-01    0.564E-01
RMM:   4    -0.116176526657E+04    0.14877E-02   -0.71430E-03 14715   0.853E-02    0.292E-01
RMM:   5    -0.116176504032E+04    0.22625E-03   -0.21860E-03 13979   0.461E-02    0.753E-02
RMM:   6    -0.116176503475E+04    0.55665E-05   -0.30918E-04  9976   0.182E-02    0.470E-02
RMM:   7    -0.116176504552E+04   -0.10768E-04   -0.16084E-04  8069   0.129E-02    0.259E-02
RMM:   8    -0.116176505329E+04   -0.77640E-05   -0.78402E-05  7353   0.104E-02
   8 F= -.11617651E+04 E0= -.11617647E+04  d E =-.387689E-01  mag=     7.9965
       N       E                     dE             d eps       ncg     rms          rms(c)
DAV:   1    -0.116176044755E+04    0.45980E-02   -0.42530E+00 12936   0.244E+00    0.575E-01
RMM:   2    -0.116177073822E+04   -0.10291E-01   -0.11617E-01 12296   0.431E-01    0.451E-01
RMM:   3    -0.116177063851E+04    0.99712E-04   -0.52896E-03 12882   0.119E-01    0.281E-01
RMM:   4    -0.116177027609E+04    0.36242E-03   -0.19116E-03 14077   0.433E-02    0.145E-01
RMM:   5    -0.116177021487E+04    0.61223E-04   -0.57367E-04 11376   0.243E-02    0.368E-02
RMM:   6    -0.116177021271E+04    0.21515E-05   -0.78266E-05  7385   0.113E-02    0.227E-02
RMM:   7    -0.116177021630E+04   -0.35912E-05   -0.44384E-05  7218   0.899E-03    0.135E-02
RMM:   8    -0.116177021952E+04   -0.32167E-05   -0.28103E-05  7051   0.707E-03
   9 F= -.11617702E+04 E0= -.11617697E+04  d E =-.439351E-01  mag=     7.9947
       N       E                     dE             d eps       ncg     rms          rms(c)
DAV:   1    -0.116177202541E+04   -0.18091E-02   -0.13518E+01 12728   0.431E+00    0.872E-01
RMM:   2    -0.116180095660E+04   -0.28931E-01   -0.34465E-01 12296   0.729E-01    0.621E-01
RMM:   3    -0.116180011205E+04    0.84455E-03   -0.15507E-02 12603   0.212E-01    0.399E-01
RMM:   4    -0.116179905385E+04    0.10582E-02   -0.55046E-03 15269   0.745E-02    0.226E-01
RMM:   5    -0.116179885960E+04    0.19426E-03   -0.15152E-03 14147   0.373E-02    0.819E-02
RMM:   6    -0.116179886620E+04   -0.65997E-05   -0.23723E-04  9313   0.160E-02    0.436E-02
RMM:   7    -0.116179887395E+04   -0.77495E-05   -0.11707E-04  7721   0.131E-02    0.260E-02
RMM:   8    -0.116179888113E+04   -0.71859E-05   -0.76955E-05  7313   0.951E-03
  10 F= -.11617989E+04 E0= -.11617983E+04  d E =-.286616E-01  mag=     7.9944
       N       E                     dE             d eps       ncg     rms          rms(c)
DAV:   1    -0.116179254911E+04    0.63248E-02   -0.58787E+00 12928   0.284E+00    0.575E-01
RMM:   2    -0.116180518727E+04   -0.12638E-01   -0.15041E-01 12298   0.481E-01    0.409E-01
RMM:   3    -0.116180481116E+04    0.37610E-03   -0.68772E-03 12533   0.140E-01    0.262E-01
RMM:   4    -0.116180436223E+04    0.44893E-03   -0.25007E-03 14910   0.496E-02    0.147E-01
RMM:   5    -0.116180427211E+04    0.90127E-04   -0.68712E-04 12236   0.255E-02    0.504E-02
RMM:   6    -0.116180427329E+04   -0.11885E-05   -0.95917E-05  7519   0.118E-02    0.277E-02
RMM:   7    -0.116180427797E+04   -0.46712E-05   -0.63648E-05  7305   0.105E-02    0.168E-02
RMM:   8    -0.116180428198E+04   -0.40150E-05   -0.41947E-05  7099   0.767E-03
  11 F= -.11618043E+04 E0= -.11618037E+04  d E =-.340625E-01  mag=     7.9942
       N       E                     dE             d eps       ncg     rms          rms(c)
DAV:   1    -0.116180236075E+04    0.19172E-02   -0.85918E+00 12736   0.338E+00    0.641E-01
RMM:   2    -0.116182147661E+04   -0.19116E-01   -0.21624E-01 12297   0.568E-01    0.468E-01
RMM:   3    -0.116182095666E+04    0.51995E-03   -0.92291E-03 12413   0.161E-01    0.306E-01
RMM:   4    -0.116182042250E+04    0.53416E-03   -0.33106E-03 14742   0.577E-02    0.157E-01
RMM:   5    -0.116182034483E+04    0.77672E-04   -0.79144E-04 12444   0.279E-02    0.654E-02
RMM:   6    -0.116182034950E+04   -0.46707E-05   -0.12001E-04  7673   0.123E-02    0.306E-02
RMM:   7    -0.116182035419E+04   -0.46856E-05   -0.73572E-05  7405   0.110E-02    0.173E-02
RMM:   8    -0.116182035845E+04   -0.42647E-05   -0.54209E-05  7187   0.799E-03
  12 F= -.11618204E+04 E0= -.11618195E+04  d E =-.160765E-01  mag=     7.9918
       N       E                     dE             d eps       ncg     rms          rms(c)
DAV:   1    -0.116181194177E+04    0.84124E-02   -0.61162E+00 12800   0.285E+00    0.540E-01
RMM:   2    -0.116182555540E+04   -0.13614E-01   -0.15395E-01 12300   0.479E-01    0.395E-01
RMM:   3    -0.116182518602E+04    0.36937E-03   -0.66285E-03 12382   0.136E-01    0.257E-01
RMM:   4    -0.116182480870E+04    0.37732E-03   -0.23682E-03 14231   0.485E-02    0.130E-01
RMM:   5    -0.116182475546E+04    0.53238E-04   -0.56742E-04 11703   0.243E-02    0.443E-02
RMM:   6    -0.116182475791E+04   -0.24442E-05   -0.83135E-05  7415   0.118E-02    0.246E-02
RMM:   7    -0.116182476317E+04   -0.52655E-05   -0.71912E-05  7295   0.978E-03    0.137E-02
RMM:   8    -0.116182476648E+04   -0.33065E-05   -0.43150E-05  7047   0.781E-03
  13 F= -.11618248E+04 E0= -.11618237E+04  d E =-.204845E-01  mag=     7.9886
       N       E                     dE             d eps       ncg     rms          rms(c)
DAV:   1    -0.116181864653E+04    0.61166E-02   -0.81416E+00 12784   0.330E+00    0.633E-01
RMM:   2    -0.116183657354E+04   -0.17927E-01   -0.20703E-01 12297   0.557E-01    0.505E-01
RMM:   3    -0.116183604110E+04    0.53244E-03   -0.86725E-03 12424   0.153E-01    0.331E-01
RMM:   4    -0.116183560492E+04    0.43618E-03   -0.32389E-03 14563   0.561E-02    0.177E-01
RMM:   5    -0.116183542795E+04    0.17697E-03   -0.85359E-04 12541   0.284E-02    0.396E-02
RMM:   6    -0.116183542847E+04   -0.51370E-06   -0.11291E-04  7626   0.124E-02    0.267E-02
RMM:   7    -0.116183543232E+04   -0.38590E-05   -0.69672E-05  7367   0.109E-02    0.154E-02
RMM:   8    -0.116183543671E+04   -0.43892E-05   -0.53627E-05  7149   0.802E-03
  14 F= -.11618354E+04 E0= -.11618346E+04  d E =-.106702E-01  mag=     7.9910
       N       E                     dE             d eps       ncg     rms          rms(c)
DAV:   1    -0.116183429587E+04    0.11365E-02   -0.92020E-01 13240   0.111E+00    0.212E-01
RMM:   2    -0.116183633664E+04   -0.20408E-02   -0.23562E-02 12317   0.188E-01    0.170E-01
RMM:   3    -0.116183627579E+04    0.60850E-04   -0.10377E-03 11911   0.535E-02    0.112E-01
RMM:   4    -0.116183622734E+04    0.48446E-04   -0.39412E-04 10098   0.195E-02    0.589E-02
RMM:   5    -0.116183620547E+04    0.21869E-04   -0.80883E-05  7391   0.125E-02    0.118E-02
RMM:   6    -0.116183620851E+04   -0.30374E-05   -0.30105E-05  7004   0.781E-03    0.844E-03
RMM:   7    -0.116183621007E+04   -0.15540E-05   -0.17334E-05  6670   0.583E-03    0.674E-03
RMM:   8    -0.116183621113E+04   -0.10677E-05   -0.11714E-05  6415   0.471E-03
  15 F= -.11618362E+04 E0= -.11618354E+04  d E =-.114447E-01  mag=     7.9919
       N       E                     dE             d eps       ncg     rms          rms(c)
DAV:   1    -0.116183025813E+04    0.59519E-02   -0.67618E+00 12808   0.302E+00    0.562E-01
RMM:   2    -0.116184527216E+04   -0.15014E-01   -0.16902E-01 12296   0.501E-01    0.397E-01
RMM:   3    -0.116184486100E+04    0.41115E-03   -0.71938E-03 12291   0.142E-01    0.256E-01
RMM:   4    -0.116184449101E+04    0.37000E-03   -0.24998E-03 14443   0.493E-02    0.122E-01
RMM:   5    -0.116184442980E+04    0.61203E-04   -0.53286E-04 11571   0.232E-02    0.318E-02
RMM:   6    -0.116184443382E+04   -0.40139E-05   -0.90623E-05  7411   0.117E-02    0.204E-02
RMM:   7    -0.116184443903E+04   -0.52175E-05   -0.67974E-05  7252   0.102E-02    0.129E-02
RMM:   8    -0.116184444215E+04   -0.31118E-05   -0.35108E-05  6992   0.758E-03
  16 F= -.11618444E+04 E0= -.11618437E+04  d E =-.823101E-02  mag=     7.9926
       N       E                     dE             d eps       ncg     rms          rms(c)
DAV:   1    -0.116184102856E+04    0.34105E-02   -0.22879E+00 12928   0.175E+00    0.327E-01
RMM:   2    -0.116184613527E+04   -0.51067E-02   -0.57463E-02 12303   0.292E-01    0.231E-01
RMM:   3    -0.116184599514E+04    0.14013E-03   -0.25256E-03 12201   0.846E-02    0.149E-01
RMM:   4    -0.116184587233E+04    0.12281E-03   -0.88931E-04 12433   0.292E-02    0.700E-02
RMM:   5    -0.116184584814E+04    0.24190E-04   -0.16117E-04  8213   0.165E-02    0.195E-02
RMM:   6    -0.116184585292E+04   -0.47828E-05   -0.49869E-05  7128   0.101E-02    0.139E-02
RMM:   7    -0.116184585608E+04   -0.31523E-05   -0.34225E-05  6931   0.814E-03    0.106E-02
RMM:   8    -0.116184585810E+04   -0.20187E-05   -0.21960E-05  6772   0.616E-03
  17 F= -.11618459E+04 E0= -.11618452E+04  d E =-.964696E-02  mag=     7.9929
       N       E                     dE             d eps       ncg     rms          rms(c)
DAV:   1    -0.116183461479E+04    0.11241E-01   -0.77879E+00 12768   0.322E+00    0.595E-01
RMM:   2    -0.116185153840E+04   -0.16924E-01   -0.19806E-01 12294   0.546E-01    0.478E-01
RMM:   3    -0.116185099405E+04    0.54435E-03   -0.81878E-03 12437   0.144E-01    0.320E-01
RMM:   4    -0.116185046431E+04    0.52975E-03   -0.29647E-03 14041   0.541E-02    0.184E-01
RMM:   5    -0.116185028067E+04    0.18364E-03   -0.78107E-04 11948   0.280E-02    0.789E-02
RMM:   6    -0.116185028700E+04   -0.63371E-05   -0.11782E-04  7653   0.132E-02    0.311E-02
RMM:   7    -0.116185028941E+04   -0.24013E-05   -0.56741E-05  7289   0.103E-02    0.196E-02
RMM:   8    -0.116185029307E+04   -0.36644E-05   -0.46800E-05  7196   0.824E-03
  18 F= -.11618503E+04 E0= -.11618494E+04  d E =-.443497E-02  mag=     7.9914
       N       E                     dE             d eps       ncg     rms          rms(c)
DAV:   1    -0.116185003894E+04    0.25047E-03   -0.20190E-01 13336   0.518E-01    0.964E-02
RMM:   2    -0.116185046690E+04   -0.42796E-03   -0.50183E-03 12229   0.892E-02    0.765E-02
RMM:   3    -0.116185045605E+04    0.10845E-04   -0.19184E-04  7629   0.268E-02    0.506E-02
RMM:   4    -0.116185044326E+04    0.12788E-04   -0.63582E-05  6903   0.102E-02    0.327E-02
RMM:   5    -0.116185043994E+04    0.33261E-05   -0.15467E-05  6461   0.621E-03    0.210E-02
RMM:   6    -0.116185044043E+04   -0.49268E-06   -0.62207E-06  5529   0.350E-03    0.605E-03
RMM:   7    -0.116185044064E+04   -0.20531E-06   -0.20185E-06  4134   0.274E-03    0.520E-03
RMM:   8    -0.116185044071E+04   -0.69311E-07   -0.49597E-07  2535   0.195E-03
  19 F= -.11618504E+04 E0= -.11618496E+04  d E =-.458261E-02  mag=     7.9915
       N       E                     dE             d eps       ncg     rms          rms(c)
DAV:   1    -0.116184804057E+04    0.24001E-02   -0.25911E+00 12768   0.187E+00    0.338E-01
RMM:   2    -0.116185376004E+04   -0.57195E-02   -0.64896E-02 12293   0.312E-01    0.246E-01
RMM:   3    -0.116185358776E+04    0.17229E-03   -0.27145E-03 12139   0.863E-02    0.163E-01
RMM:   4    -0.116185342922E+04    0.15854E-03   -0.84815E-04 12241   0.300E-02    0.908E-02
RMM:   5    -0.116185339357E+04    0.35646E-04   -0.19433E-04  8362   0.174E-02    0.279E-02
RMM:   6    -0.116185339858E+04   -0.50085E-05   -0.50525E-05  7166   0.107E-02    0.148E-02
RMM:   7    -0.116185340087E+04   -0.22889E-05   -0.26661E-05  6989   0.742E-03    0.114E-02
RMM:   8    -0.116185340231E+04   -0.14407E-05   -0.16561E-05  6564   0.587E-03
  20 F= -.11618534E+04 E0= -.11618524E+04  d E =-.296161E-02  mag=     7.9897
       N       E                     dE             d eps       ncg     rms          rms(c)
DAV:   1    -0.116185289179E+04    0.50908E-03   -0.36157E-01 12832   0.698E-01    0.126E-01
RMM:   2    -0.116185370493E+04   -0.81314E-03   -0.92022E-03 12322   0.118E-01    0.922E-02
RMM:   3    -0.116185367889E+04    0.26039E-04   -0.38729E-04  9034   0.352E-02    0.617E-02
RMM:   4    -0.116185365720E+04    0.21688E-04   -0.12255E-04  7233   0.129E-02    0.341E-02
RMM:   5    -0.116185365563E+04    0.15737E-05   -0.39648E-05  6980   0.878E-03    0.148E-02
RMM:   6    -0.116185365731E+04   -0.16818E-05   -0.16725E-05  6796   0.595E-03    0.835E-03
RMM:   7    -0.116185365821E+04   -0.90009E-06   -0.97051E-06  6281   0.435E-03    0.589E-03
RMM:   8    -0.116185365874E+04   -0.52994E-06   -0.58347E-06  5292   0.358E-03
  21 F= -.11618537E+04 E0= -.11618526E+04  d E =-.321803E-02  mag=     7.9888
       N       E                     dE             d eps       ncg     rms          rms(c)
DAV:   1    -0.116185057827E+04    0.30799E-02   -0.23922E+00 12752   0.180E+00    0.360E-01
RMM:   2    -0.116185591064E+04   -0.53324E-02   -0.61223E-02 12299   0.305E-01    0.270E-01
RMM:   3    -0.116185574805E+04    0.16260E-03   -0.26206E-03 12133   0.871E-02    0.178E-01
RMM:   4    -0.116185559276E+04    0.15529E-03   -0.88442E-04 12342   0.304E-02    0.954E-02
RMM:   5    -0.116185555862E+04    0.34141E-04   -0.21846E-04  8622   0.187E-02    0.693E-02
RMM:   6    -0.116185556319E+04   -0.45699E-05   -0.56429E-05  7132   0.115E-02    0.193E-02
RMM:   7    -0.116185556608E+04   -0.28926E-05   -0.31018E-05  6985   0.781E-03    0.159E-02
RMM:   8    -0.116185556770E+04   -0.16155E-05   -0.20845E-05  6714   0.671E-03
  22 F= -.11618556E+04 E0= -.11618545E+04  d E =-.190896E-02  mag=     7.9893
       N       E                     dE             d eps       ncg     rms          rms(c)
DAV:   1    -0.116185556597E+04    0.11432E-06   -0.27177E-03 13096   0.615E-02    0.124E-02
RMM:   2    -0.116185557301E+04   -0.70450E-05   -0.79524E-05  6764   0.118E-02    0.117E-02
RMM:   3    -0.116185557426E+04   -0.12471E-05   -0.12016E-05  6344   0.586E-03    0.845E-03
RMM:   4    -0.116185557460E+04   -0.34220E-06   -0.51306E-06  4660   0.311E-03    0.594E-03
RMM:   5    -0.116185557472E+04   -0.11698E-06   -0.28881E-06  4148   0.314E-03    0.326E-03
RMM:   6    -0.116185557486E+04   -0.14357E-06   -0.16090E-06  2834   0.221E-03    0.842E-04
RMM:   7    -0.116185557491E+04   -0.50233E-07   -0.65672E-07  2158   0.223E-03    0.646E-04
RMM:   8    -0.116185557494E+04   -0.27198E-07   -0.27883E-07  1473   0.196E-03
  23 F= -.11618556E+04 E0= -.11618546E+04  d E =-.191620E-02  mag=     7.9894
       N       E                     dE             d eps       ncg     rms          rms(c)
DAV:   1    -0.116185431842E+04    0.12565E-02   -0.98070E-01 12888   0.115E+00    0.232E-01
RMM:   2    -0.116185651229E+04   -0.21939E-02   -0.25964E-02 12300   0.200E-01    0.193E-01
RMM:   3    -0.116185642391E+04    0.88381E-04   -0.10963E-03 12034   0.533E-02    0.129E-01
RMM:   4    -0.116185633666E+04    0.87252E-04   -0.37398E-04  9833   0.201E-02    0.733E-02
RMM:   5    -0.116185631197E+04    0.24686E-04   -0.97919E-05  7577   0.136E-02    0.235E-02
RMM:   6    -0.116185631466E+04   -0.26870E-05   -0.26917E-05  7038   0.812E-03    0.119E-02
RMM:   7    -0.116185631571E+04   -0.10508E-05   -0.13361E-05  6663   0.518E-03    0.870E-03
RMM:   8    -0.116185631641E+04   -0.69535E-06   -0.78725E-06  6220   0.436E-03
  24 F= -.11618563E+04 E0= -.11618554E+04  d E =-.741468E-03  mag=     7.9908
       N       E                     dE             d eps       ncg     rms          rms(c)
DAV:   1    -0.116185628734E+04    0.28376E-04   -0.34485E-02 12496   0.215E-01    0.437E-02
RMM:   2    -0.116185636130E+04   -0.73966E-04   -0.88637E-04 11740   0.379E-02    0.358E-02
RMM:   3    -0.116185635846E+04    0.28419E-05   -0.31638E-05  6711   0.113E-02    0.237E-02
RMM:   4    -0.116185635569E+04    0.27686E-05   -0.11655E-05  6242   0.458E-03    0.138E-02
RMM:   5    -0.116185635528E+04    0.41473E-06   -0.31730E-06  5073   0.297E-03    0.969E-03
RMM:   6    -0.116185635532E+04   -0.43350E-07   -0.66324E-07  2546   0.193E-03    0.270E-03
RMM:   7    -0.116185635530E+04    0.23851E-07   -0.11552E-07  1594   0.177E-03    0.185E-03
RMM:   8    -0.116185635527E+04    0.28725E-07   -0.20592E-08  1193   0.169E-03
  25 F= -.11618564E+04 E0= -.11618554E+04  d E =-.780328E-03  mag=     7.9906
