       N       E                     dE             d eps       ncg     rms          rms(c)
DAV:   1     0.118006868906E+05    0.11801E+05   -0.41832E+05 12352   0.130E+03
DAV:   2     0.618010533079E+03   -0.11183E+05   -0.99880E+04 12296   0.372E+02
DAV:   3    -0.136829115032E+04   -0.19863E+04   -0.19152E+04 13232   0.163E+02
DAV:   4    -0.149836188822E+04   -0.13007E+03   -0.12779E+03 16328   0.432E+01
DAV:   5    -0.150622807401E+04   -0.78662E+01   -0.78367E+01 22080   0.915E+00    0.183E+02
RMM:   6    -0.116700764470E+04    0.33922E+03   -0.15829E+03 12473   0.341E+01    0.967E+01
RMM:   7    -0.115459998234E+04    0.12408E+02   -0.64763E+01 12787   0.978E+00    0.595E+01
RMM:   8    -0.116833148717E+04   -0.13732E+02   -0.45038E+01 12622   0.691E+00    0.332E+01
RMM:   9    -0.116852222444E+04   -0.19074E+00   -0.86621E+00 12672   0.302E+00    0.173E+01
RMM:  10    -0.116265621701E+04    0.58660E+01   -0.47413E+00 12707   0.203E+00    0.123E+01
RMM:  11    -0.116036489441E+04    0.22913E+01   -0.86525E+00 12421   0.240E+00    0.765E+00
RMM:  12    -0.116160586637E+04   -0.12410E+01   -0.29921E+00 13308   0.111E+00    0.982E+00
RMM:  13    -0.116118430726E+04    0.42156E+00   -0.73881E-01 12596   0.652E-01    0.421E+00
RMM:  14    -0.116187577267E+04   -0.69147E+00   -0.37778E-01 12303   0.571E-01    0.365E+00
RMM:  15    -0.116211179315E+04   -0.23602E+00   -0.24709E-01 12493   0.463E-01    0.275E+00
RMM:  16    -0.116223518257E+04   -0.12339E+00   -0.19196E-01 12448   0.400E-01    0.165E+00
RMM:  17    -0.116229247753E+04   -0.57295E-01   -0.10001E-01 12570   0.286E-01    0.107E+00
RMM:  18    -0.116230544917E+04   -0.12972E-01   -0.38611E-02 12694   0.177E-01    0.752E-01
RMM:  19    -0.116230727332E+04   -0.18241E-02   -0.15794E-02 12865   0.111E-01    0.350E-01
RMM:  20    -0.116230882020E+04   -0.15469E-02   -0.51622E-03 12803   0.613E-02    0.218E-01
RMM:  21    -0.116230927431E+04   -0.45411E-03   -0.18085E-03 12170   0.366E-02    0.108E-01
RMM:  22    -0.116230954043E+04   -0.26612E-03   -0.66143E-04 11417   0.217E-02    0.580E-02
RMM:  23    -0.116230965365E+04   -0.11322E-03   -0.18453E-04  8678   0.136E-02    0.406E-02
RMM:  24    -0.116230971358E+04   -0.59927E-04   -0.91089E-05  8131   0.927E-03
   1 F= -.11623097E+04 E0= -.11623063E+04  d E =-.116231E+04  mag=     3.9806
       N       E                     dE             d eps       ncg     rms          rms(c)
DAV:   1    -0.113911878063E+04    0.23191E+02   -0.17147E+03 12712   0.387E+01    0.327E+01
RMM:   2    -0.116646475887E+04   -0.27346E+02   -0.31483E+02 14025   0.105E+01    0.198E+01
RMM:   3    -0.116008499167E+04    0.63798E+01   -0.19266E+01 13298   0.323E+00    0.156E+01
RMM:   4    -0.115699908679E+04    0.30859E+01   -0.69040E+00 12373   0.167E+00    0.951E+00
RMM:   5    -0.115829098291E+04   -0.12919E+01   -0.35882E+00 12690   0.891E-01    0.123E+01
RMM:   6    -0.115713799346E+04    0.11530E+01   -0.23537E+00 12259   0.862E-01    0.407E+00
RMM:   7    -0.115715098169E+04   -0.12988E-01   -0.77123E-01 12654   0.535E-01    0.309E+00
RMM:   8    -0.115703396834E+04    0.11701E+00   -0.92978E-02 12630   0.248E-01    0.252E+00
RMM:   9    -0.115691715076E+04    0.11682E+00   -0.10140E-01 12392   0.191E-01    0.987E-01
RMM:  10    -0.115690792013E+04    0.92306E-02   -0.24748E-02 12830   0.111E-01    0.576E-01
RMM:  11    -0.115690856312E+04   -0.64300E-03   -0.89219E-03 13499   0.732E-02    0.344E-01
RMM:  12    -0.115691058439E+04   -0.20213E-02   -0.12406E-02 12440   0.671E-02    0.332E-01
RMM:  13    -0.115691047202E+04    0.11238E-03   -0.14068E-03 12458   0.277E-02    0.289E-01
RMM:  14    -0.115690994531E+04    0.52670E-03   -0.83767E-04 10801   0.208E-02    0.171E-01
RMM:  15    -0.115690973990E+04    0.20542E-03   -0.56202E-04  9422   0.161E-02    0.736E-02
RMM:  16    -0.115690975131E+04   -0.11418E-04   -0.17441E-04  8233   0.991E-03
   2 F= -.11569098E+04 E0= -.11569028E+04  d E =0.539996E+01  mag=     3.9905
       N       E                     dE             d eps       ncg     rms          rms(c)
DAV:   1    -0.115819283321E+04   -0.12831E+01   -0.87073E+02 12560   0.226E+01    0.225E+01
RMM:   2    -0.116350151528E+04   -0.53087E+01   -0.54684E+01 12288   0.641E+00    0.227E+01
RMM:   3    -0.116297900106E+04    0.52251E+00   -0.37485E+00 12437   0.170E+00    0.157E+01
RMM:   4    -0.116204198382E+04    0.93702E+00   -0.25552E+00 12331   0.123E+00    0.693E+00
RMM:   5    -0.116159750337E+04    0.44448E+00   -0.84844E-01 12311   0.862E-01    0.255E+00
RMM:   6    -0.116149141917E+04    0.10608E+00   -0.19605E-01 12467   0.380E-01    0.183E+00
RMM:   7    -0.116147377990E+04    0.17639E-01   -0.38821E-02 13671   0.157E-01    0.124E+00
RMM:   8    -0.116151058948E+04   -0.36810E-01   -0.17731E-02 13249   0.104E-01    0.225E+00
RMM:   9    -0.116151097083E+04   -0.38135E-03   -0.47461E-03 15279   0.469E-02    0.252E+00
RMM:  10    -0.116151234646E+04   -0.13756E-02   -0.12777E-03 13509   0.276E-02    0.262E+00
RMM:  11    -0.116151556590E+04   -0.32194E-02   -0.39407E-03 11527   0.511E-02    0.237E+00
RMM:  12    -0.116158741438E+04   -0.71848E-01   -0.33432E-02 12108   0.159E-01    0.348E+00
RMM:  13    -0.116154825839E+04    0.39156E-01   -0.77485E-03 11761   0.782E-02    0.313E+00
RMM:  14    -0.116153090637E+04    0.17352E-01   -0.28314E-02 12110   0.151E-01    0.241E+00
RMM:  15    -0.116151804600E+04    0.12860E-01   -0.10640E-02 12423   0.922E-02    0.196E+00
RMM:  16    -0.116149309354E+04    0.24952E-01   -0.87448E-03 12142   0.897E-02    0.814E-01
RMM:  17    -0.116150564098E+04   -0.12547E-01   -0.64272E-03 12085   0.711E-02    0.156E+00
RMM:  18    -0.116151544729E+04   -0.98063E-02   -0.23026E-03 11110   0.566E-02    0.150E+00
RMM:  19    -0.116151846440E+04   -0.30171E-02   -0.39461E-03 11928   0.643E-02    0.120E+00
RMM:  20    -0.116152019281E+04   -0.17284E-02   -0.79402E-03 12107   0.864E-02    0.573E-01
RMM:  21    -0.116152307932E+04   -0.28865E-02   -0.52591E-03 11902   0.708E-02    0.167E-01
RMM:  22    -0.116152393712E+04   -0.85780E-03   -0.67813E-04 10145   0.245E-02    0.189E-01
RMM:  23    -0.116152441176E+04   -0.47464E-03   -0.27407E-04  8863   0.173E-02    0.190E-01
RMM:  24    -0.116152512933E+04   -0.71757E-03   -0.11955E-03 10655   0.340E-02    0.179E-01
RMM:  25    -0.116152510455E+04    0.24778E-04   -0.61572E-04  9903   0.250E-02
   3 F= -.11615251E+04 E0= -.11615189E+04  d E =-.461535E+01  mag=     3.9815
       N       E                     dE             d eps       ncg     rms          rms(c)
DAV:   1    -0.116200777220E+04   -0.48264E+00   -0.32735E+02 12576   0.186E+01    0.616E+00
RMM:   2    -0.116319101148E+04   -0.11832E+01   -0.12646E+01 12288   0.359E+00    0.716E+00
RMM:   3    -0.116311595788E+04    0.75054E-01   -0.43441E-01 13242   0.688E-01    0.544E+00
RMM:   4    -0.116312640524E+04   -0.10447E-01   -0.22469E-01 12284   0.412E-01    0.341E+00
RMM:   5    -0.116306881242E+04    0.57593E-01   -0.11901E-01 12245   0.307E-01    0.827E-01
RMM:   6    -0.116306387095E+04    0.49415E-02   -0.13396E-02 13048   0.101E-01    0.546E-01
RMM:   7    -0.116306182227E+04    0.20487E-02   -0.53546E-03 12441   0.545E-02    0.295E-01
RMM:   8    -0.116306151460E+04    0.30766E-03   -0.16846E-03 11313   0.363E-02    0.149E-01
RMM:   9    -0.116306157933E+04   -0.64724E-04   -0.88922E-04 10829   0.256E-02
   4 F= -.11630616E+04 E0= -.11630570E+04  d E =-.153647E+01  mag=     3.9894
       N       E                     dE             d eps       ncg     rms          rms(c)
DAV:   1    -0.116355681403E+04   -0.49530E+00   -0.78155E+01 12976   0.874E+00    0.271E+00
RMM:   2    -0.116373160806E+04   -0.17479E+00   -0.22253E+00 12288   0.163E+00    0.246E+00
RMM:   3    -0.116371318824E+04    0.18420E-01   -0.10143E-01 12803   0.334E-01    0.145E+00
RMM:   4    -0.116370418424E+04    0.90040E-02   -0.41762E-02 12230   0.185E-01    0.857E-01
RMM:   5    -0.116369901642E+04    0.51678E-02   -0.11823E-02 12188   0.102E-01    0.243E-01
RMM:   6    -0.116369931019E+04   -0.29377E-03   -0.18750E-03 12341   0.382E-02    0.191E-01
RMM:   7    -0.116369937195E+04   -0.61762E-04   -0.58028E-04 11066   0.203E-02    0.133E-01
RMM:   8    -0.116369949838E+04   -0.12642E-03   -0.30486E-04  9560   0.166E-02    0.558E-02
RMM:   9    -0.116369951440E+04   -0.16022E-04   -0.86339E-05  8235   0.101E-02
   5 F= -.11636995E+04 E0= -.11636949E+04  d E =-.637935E+00  mag=     3.9755
       N       E                     dE             d eps       ncg     rms          rms(c)
DAV:   1    -0.116405244623E+04   -0.35295E+00   -0.56345E+01 12688   0.702E+00    0.242E+00
RMM:   2    -0.116418884631E+04   -0.13640E+00   -0.15272E+00 12290   0.128E+00    0.206E+00
RMM:   3    -0.116417699140E+04    0.11855E-01   -0.82061E-02 12659   0.281E-01    0.116E+00
RMM:   4    -0.116417208773E+04    0.49037E-02   -0.28601E-02 12136   0.147E-01    0.582E-01
RMM:   5    -0.116417080403E+04    0.12837E-02   -0.69397E-03 12318   0.761E-02    0.247E-01
RMM:   6    -0.116417096961E+04   -0.16558E-03   -0.16246E-03 11879   0.359E-02    0.149E-01
RMM:   7    -0.116417106422E+04   -0.94606E-04   -0.47255E-04 10667   0.186E-02    0.949E-02
RMM:   8    -0.116417117639E+04   -0.11217E-03   -0.19601E-04  8717   0.143E-02    0.410E-02
RMM:   9    -0.116417119279E+04   -0.16398E-04   -0.73141E-05  7946   0.848E-03
   6 F= -.11641712E+04 E0= -.11641665E+04  d E =-.471678E+00  mag=     3.9744
       N       E                     dE             d eps       ncg     rms          rms(c)
DAV:   1    -0.116433417867E+04   -0.16300E+00   -0.20753E+01 12768   0.452E+00    0.159E+00
RMM:   2    -0.116438319099E+04   -0.49012E-01   -0.56399E-01 12290   0.816E-01    0.131E+00
RMM:   3    -0.116437897406E+04    0.42169E-02   -0.30667E-02 12810   0.179E-01    0.753E-01
RMM:   4    -0.116437707329E+04    0.19008E-02   -0.11062E-02 12467   0.939E-02    0.332E-01
RMM:   5    -0.116437664894E+04    0.42435E-03   -0.26582E-03 12043   0.450E-02    0.138E-01
RMM:   6    -0.116437667365E+04   -0.24713E-04   -0.52022E-04 10669   0.204E-02    0.830E-02
RMM:   7    -0.116437670164E+04   -0.27984E-04   -0.15440E-04  8284   0.112E-02    0.487E-02
RMM:   8    -0.116437672947E+04   -0.27838E-04   -0.73890E-05  7678   0.841E-03
   7 F= -.11643767E+04 E0= -.11643720E+04  d E =-.205537E+00  mag=     3.9745
       N       E                     dE             d eps       ncg     rms          rms(c)
DAV:   1    -0.116437792301E+04   -0.12214E-02   -0.61064E+01 12672   0.815E+00    0.278E+00
RMM:   2    -0.116453882585E+04   -0.16090E+00   -0.19405E+00 12290   0.158E+00    0.257E+00
RMM:   3    -0.116452624601E+04    0.12580E-01   -0.95834E-02 13686   0.341E-01    0.178E+00
RMM:   4    -0.116451956257E+04    0.66834E-02   -0.45255E-02 12910   0.193E-01    0.732E-01
RMM:   5    -0.116451658963E+04    0.29729E-02   -0.10211E-02 13890   0.882E-02    0.207E-01
RMM:   6    -0.116451645187E+04    0.13776E-03   -0.12522E-03 14268   0.327E-02    0.136E-01
RMM:   7    -0.116451648809E+04   -0.36226E-04   -0.54988E-04 12386   0.188E-02    0.666E-02
RMM:   8    -0.116451650040E+04   -0.12304E-04   -0.22054E-04  8999   0.128E-02
   8 F= -.11645165E+04 E0= -.11645118E+04  d E =-.139771E+00  mag=     3.9705
       N       E                     dE             d eps       ncg     rms          rms(c)
DAV:   1    -0.116453410150E+04   -0.17613E-01   -0.37298E+00 13440   0.220E+00    0.467E-01
RMM:   2    -0.116454200125E+04   -0.78997E-02   -0.10061E-01 12282   0.381E-01    0.410E-01
RMM:   3    -0.116454155678E+04    0.44447E-03   -0.44454E-03 12914   0.886E-02    0.279E-01
RMM:   4    -0.116454116215E+04    0.39463E-03   -0.16248E-03 11962   0.385E-02    0.156E-01
RMM:   5    -0.116454102865E+04    0.13351E-03   -0.56518E-04 10852   0.225E-02    0.459E-02
RMM:   6    -0.116454103106E+04   -0.24171E-05   -0.69463E-05  7563   0.940E-03    0.328E-02
RMM:   7    -0.116454103263E+04   -0.15650E-05   -0.32030E-05  7133   0.605E-03    0.201E-02
RMM:   8    -0.116454103649E+04   -0.38616E-05   -0.22850E-05  7016   0.550E-03
   9 F= -.11645410E+04 E0= -.11645364E+04  d E =-.245361E-01  mag=     3.9707
       N       E                     dE             d eps       ncg     rms          rms(c)
DAV:   1    -0.116453776662E+04    0.32660E-02   -0.85725E+00 12784   0.325E+00    0.796E-01
RMM:   2    -0.116455749979E+04   -0.19733E-01   -0.23630E-01 12290   0.573E-01    0.827E-01
RMM:   3    -0.116455645895E+04    0.10408E-02   -0.10202E-02 13351   0.125E-01    0.617E-01
RMM:   4    -0.116455601131E+04    0.44764E-03   -0.37462E-03 12184   0.562E-02    0.374E-01
RMM:   5    -0.116455530521E+04    0.70610E-03   -0.18781E-03 11539   0.374E-02    0.653E-02
RMM:   6    -0.116455527629E+04    0.28924E-04   -0.14989E-04  8165   0.138E-02    0.501E-02
RMM:   7    -0.116455526600E+04    0.10289E-04   -0.65896E-05  7366   0.820E-03    0.269E-02
RMM:   8    -0.116455526563E+04    0.36700E-06   -0.51044E-05  7188   0.749E-03
  10 F= -.11645553E+04 E0= -.11645506E+04  d E =-.142291E-01  mag=     3.9712
       N       E                     dE             d eps       ncg     rms          rms(c)
DAV:   1    -0.116452238252E+04    0.32883E-01   -0.34638E+01 12640   0.665E+00    0.146E+00
RMM:   2    -0.116460259327E+04   -0.80211E-01   -0.91094E-01 12296   0.114E+00    0.123E+00
RMM:   3    -0.116459967952E+04    0.29137E-02   -0.40720E-02 13324   0.264E-01    0.853E-01
RMM:   4    -0.116459749394E+04    0.21856E-02   -0.12127E-02 14172   0.104E-01    0.461E-01
RMM:   5    -0.116459650203E+04    0.99191E-03   -0.47261E-03 13718   0.584E-02    0.986E-02
RMM:   6    -0.116459644547E+04    0.56561E-04   -0.54531E-04 11619   0.224E-02    0.699E-02
RMM:   7    -0.116459644917E+04   -0.36963E-05   -0.23449E-04  8547   0.133E-02    0.343E-02
RMM:   8    -0.116459645923E+04   -0.10059E-04   -0.11223E-04  7690   0.100E-02
  11 F= -.11645965E+04 E0= -.11645918E+04  d E =-.411936E-01  mag=     3.9684
       N       E                     dE             d eps       ncg     rms          rms(c)
DAV:   1    -0.116459530360E+04    0.11456E-02   -0.92322E+00 12824   0.346E+00    0.550E-01
RMM:   2    -0.116461580017E+04   -0.20497E-01   -0.22318E-01 12296   0.561E-01    0.356E-01
RMM:   3    -0.116461537646E+04    0.42370E-03   -0.93523E-03 12496   0.137E-01    0.238E-01
RMM:   4    -0.116461489842E+04    0.47804E-03   -0.29293E-03 13757   0.499E-02    0.981E-02
RMM:   5    -0.116461484184E+04    0.56584E-04   -0.50644E-04 12060   0.193E-02    0.315E-02
RMM:   6    -0.116461484849E+04   -0.66495E-05   -0.71924E-05  7772   0.982E-03    0.199E-02
RMM:   7    -0.116461485603E+04   -0.75436E-05   -0.83733E-05  7644   0.825E-03    0.931E-03
RMM:   8    -0.116461485846E+04   -0.24282E-05   -0.31424E-05  7148   0.657E-03
  12 F= -.11646149E+04 E0= -.11646102E+04  d E =-.183992E-01  mag=     3.9676
       N       E                     dE             d eps       ncg     rms          rms(c)
DAV:   1    -0.116461570126E+04   -0.84522E-03   -0.66926E+00 12840   0.292E+00    0.588E-01
RMM:   2    -0.116463108834E+04   -0.15387E-01   -0.17425E-01 12293   0.497E-01    0.575E-01
RMM:   3    -0.116463058646E+04    0.50188E-03   -0.74466E-03 13081   0.114E-01    0.422E-01
RMM:   4    -0.116463028632E+04    0.30015E-03   -0.22795E-03 12834   0.444E-02    0.270E-01
RMM:   5    -0.116462995363E+04    0.33269E-03   -0.12565E-03 11992   0.306E-02    0.487E-02
RMM:   6    -0.116462993958E+04    0.14048E-04   -0.10633E-04  7750   0.114E-02    0.370E-02
RMM:   7    -0.116462993649E+04    0.30933E-05   -0.53234E-05  7173   0.721E-03    0.204E-02
RMM:   8    -0.116462993770E+04   -0.12085E-05   -0.45062E-05  7047   0.700E-03
  13 F= -.11646299E+04 E0= -.11646252E+04  d E =-.150792E-01  mag=     3.9674
       N       E                     dE             d eps       ncg     rms          rms(c)
DAV:   1    -0.116462422678E+04    0.57097E-02   -0.83902E+00 12736   0.330E+00    0.529E-01
RMM:   2    -0.116464290528E+04   -0.18679E-01   -0.20246E-01 12296   0.534E-01    0.343E-01
RMM:   3    -0.116464250816E+04    0.39712E-03   -0.83831E-03 12414   0.130E-01    0.225E-01
RMM:   4    -0.116464210027E+04    0.40789E-03   -0.25350E-03 13732   0.464E-02    0.104E-01
RMM:   5    -0.116464202934E+04    0.70937E-04   -0.50344E-04 11935   0.191E-02    0.299E-02
RMM:   6    -0.116464203497E+04   -0.56373E-05   -0.59897E-05  7542   0.948E-03    0.195E-02
RMM:   7    -0.116464204174E+04   -0.67671E-05   -0.75088E-05  7454   0.783E-03    0.942E-03
RMM:   8    -0.116464204386E+04   -0.21231E-05   -0.28385E-05  6992   0.625E-03
  14 F= -.11646420E+04 E0= -.11646374E+04  d E =-.121062E-01  mag=     3.9670
       N       E                     dE             d eps       ncg     rms          rms(c)
DAV:   1    -0.116463575567E+04    0.62861E-02   -0.73700E+00 12760   0.310E+00    0.499E-01
RMM:   2    -0.116465218018E+04   -0.16425E-01   -0.17726E-01 12296   0.500E-01    0.316E-01
RMM:   3    -0.116465183626E+04    0.34392E-03   -0.73149E-03 12386   0.122E-01    0.208E-01
RMM:   4    -0.116465146835E+04    0.36791E-03   -0.23339E-03 13635   0.443E-02    0.771E-02
RMM:   5    -0.116465145070E+04    0.17651E-04   -0.35363E-04 10763   0.166E-02    0.281E-02
RMM:   6    -0.116465145690E+04   -0.62034E-05   -0.50566E-05  7483   0.945E-03    0.172E-02
RMM:   7    -0.116465146449E+04   -0.75870E-05   -0.83732E-05  7442   0.796E-03    0.107E-02
RMM:   8    -0.116465146670E+04   -0.22064E-05   -0.35123E-05  6945   0.619E-03
  15 F= -.11646515E+04 E0= -.11646468E+04  d E =-.942283E-02  mag=     3.9667
       N       E                     dE             d eps       ncg     rms          rms(c)
DAV:   1    -0.116464951202E+04    0.19525E-02   -0.33500E+00 12896   0.209E+00    0.338E-01
RMM:   2    -0.116465698160E+04   -0.74696E-02   -0.81009E-02 12291   0.337E-01    0.218E-01
RMM:   3    -0.116465681100E+04    0.17060E-03   -0.33965E-03 12418   0.828E-02    0.143E-01
RMM:   4    -0.116465664372E+04    0.16728E-03   -0.10429E-03 12562   0.301E-02    0.576E-02
RMM:   5    -0.116465662861E+04    0.15107E-04   -0.18477E-04  8322   0.126E-02    0.205E-02
RMM:   6    -0.116465663129E+04   -0.26839E-05   -0.29062E-05  7129   0.774E-03    0.126E-02
RMM:   7    -0.116465663595E+04   -0.46586E-05   -0.49149E-05  6933   0.651E-03    0.897E-03
RMM:   8    -0.116465663759E+04   -0.16364E-05   -0.21241E-05  6572   0.505E-03
  16 F= -.11646566E+04 E0= -.11646519E+04  d E =-.517089E-02  mag=     3.9660
       N       E                     dE             d eps       ncg     rms          rms(c)
DAV:   1    -0.116465526433E+04    0.13716E-02   -0.27160E+00 12752   0.188E+00    0.309E-01
RMM:   2    -0.116466130264E+04   -0.60383E-02   -0.65522E-02 12296   0.304E-01    0.197E-01
RMM:   3    -0.116466116231E+04    0.14033E-03   -0.27244E-03 12289   0.749E-02    0.128E-01
RMM:   4    -0.116466102578E+04    0.13653E-03   -0.86251E-04 12225   0.274E-02    0.451E-02
RMM:   5    -0.116466102023E+04    0.55449E-05   -0.12787E-04  7502   0.112E-02    0.176E-02
RMM:   6    -0.116466102406E+04   -0.38236E-05   -0.35388E-05  7061   0.717E-03    0.109E-02
RMM:   7    -0.116466102738E+04   -0.33285E-05   -0.35659E-05  6805   0.597E-03    0.749E-03
RMM:   8    -0.116466102903E+04   -0.16421E-05   -0.18180E-05  6467   0.461E-03
  17 F= -.11646610E+04 E0= -.11646563E+04  d E =-.439144E-02  mag=     3.9659
       N       E                     dE             d eps       ncg     rms          rms(c)
DAV:   1    -0.116465962679E+04    0.14006E-02   -0.23154E+00 12696   0.173E+00    0.281E-01
RMM:   2    -0.116466476756E+04   -0.51408E-02   -0.55476E-02 12296   0.279E-01    0.177E-01
RMM:   3    -0.116466464946E+04    0.11809E-03   -0.23071E-03 12247   0.689E-02    0.115E-01
RMM:   4    -0.116466453310E+04    0.11636E-03   -0.71852E-04 11887   0.251E-02    0.391E-02
RMM:   5    -0.116466452970E+04    0.33958E-05   -0.99108E-05  7315   0.102E-02    0.161E-02
RMM:   6    -0.116466453376E+04   -0.40592E-05   -0.34942E-05  6985   0.660E-03    0.101E-02
RMM:   7    -0.116466453631E+04   -0.25450E-05   -0.28310E-05  6747   0.547E-03    0.688E-03
RMM:   8    -0.116466453767E+04   -0.13613E-05   -0.15163E-05  6315   0.425E-03
  18 F= -.11646645E+04 E0= -.11646598E+04  d E =-.350864E-02  mag=     3.9654
       N       E                     dE             d eps       ncg     rms          rms(c)
DAV:   1    -0.116466303297E+04    0.15033E-02   -0.21677E+00 12792   0.168E+00    0.273E-01
RMM:   2    -0.116466784776E+04   -0.48148E-02   -0.51916E-02 12296   0.271E-01    0.173E-01
RMM:   3    -0.116466773824E+04    0.10953E-03   -0.21478E-03 12183   0.667E-02    0.112E-01
RMM:   4    -0.116466763417E+04    0.10407E-03   -0.66475E-04 11723   0.241E-02    0.386E-02
RMM:   5    -0.116466762950E+04    0.46724E-05   -0.92974E-05  7274   0.993E-03    0.153E-02
RMM:   6    -0.116466763362E+04   -0.41238E-05   -0.34574E-05  6970   0.643E-03    0.962E-03
RMM:   7    -0.116466763589E+04   -0.22745E-05   -0.25196E-05  6726   0.532E-03    0.589E-03
RMM:   8    -0.116466763725E+04   -0.13609E-05   -0.14155E-05  6186   0.409E-03
  19 F= -.11646676E+04 E0= -.11646629E+04  d E =-.309959E-02  mag=     3.9649
       N       E                     dE             d eps       ncg     rms          rms(c)
DAV:   1    -0.116466581111E+04    0.18248E-02   -0.20884E+00 12736   0.165E+00    0.264E-01
RMM:   2    -0.116467046130E+04   -0.46502E-02   -0.49838E-02 12296   0.265E-01    0.165E-01
RMM:   3    -0.116467036387E+04    0.97426E-04   -0.20589E-03 12148   0.653E-02    0.107E-01
RMM:   4    -0.116467026553E+04    0.98343E-04   -0.63609E-04 11390   0.236E-02    0.325E-02
RMM:   5    -0.116467026471E+04    0.82086E-06   -0.82278E-05  7236   0.941E-03    0.145E-02
RMM:   6    -0.116467026862E+04   -0.39080E-05   -0.32791E-05  6970   0.621E-03    0.916E-03
RMM:   7    -0.116467027079E+04   -0.21774E-05   -0.24395E-05  6689   0.516E-03    0.586E-03
RMM:   8    -0.116467027211E+04   -0.13165E-05   -0.13707E-05  6121   0.402E-03
  20 F= -.11646703E+04 E0= -.11646656E+04  d E =-.263486E-02  mag=     3.9647
