       N       E                     dE             d eps       ncg     rms          rms(c)
DAV:   1    -0.116514795616E+04   -0.11651E+04   -0.49274E-06  7904   0.457E-03    0.823E-03
RMM:   2    -0.116514795560E+04    0.56587E-06   -0.38889E-06  4617   0.256E-03    0.845E-03
RMM:   3    -0.116514795507E+04    0.52527E-06   -0.37784E-07  2523   0.185E-03    0.171E-03
RMM:   4    -0.116514795506E+04    0.15294E-07   -0.45396E-08  1206   0.179E-03    0.132E-03
RMM:   5    -0.116514795505E+04    0.11249E-07   -0.10440E-07  1040   0.181E-03    0.604E-04
RMM:   6    -0.116514795504E+04    0.84838E-08   -0.10751E-07   910   0.181E-03    0.207E-04
RMM:   7    -0.116514795504E+04    0.12660E-08   -0.13031E-08   593   0.177E-03    0.133E-04
RMM:   8    -0.116514795504E+04    0.15425E-08   -0.56507E-09   512   0.177E-03
   1 F= -.11651480E+04 E0= -.11651426E+04  d E =-.116515E+04  mag=     2.1751
       N       E                     dE             d eps       ncg     rms          rms(c)
DAV:   1    -0.116514803152E+04   -0.76485E-04   -0.56704E-02 12224   0.275E-01    0.746E-02
RMM:   2    -0.116514810455E+04   -0.73027E-04   -0.18555E-03 12116   0.536E-02    0.747E-02
RMM:   3    -0.116514807475E+04    0.29794E-04   -0.59900E-05  7092   0.114E-02    0.500E-02
RMM:   4    -0.116514805318E+04    0.21578E-04   -0.69831E-05  7049   0.889E-03    0.256E-02
RMM:   5    -0.116514804561E+04    0.75646E-05   -0.16691E-05  6240   0.450E-03    0.106E-02
RMM:   6    -0.116514804545E+04    0.16291E-06   -0.35444E-06  4967   0.239E-03    0.830E-03
RMM:   7    -0.116514804537E+04    0.77591E-07   -0.63614E-07  3238   0.181E-03    0.516E-03
RMM:   8    -0.116514804541E+04   -0.38082E-07   -0.36340E-07  3017   0.181E-03
   2 F= -.11651480E+04 E0= -.11651428E+04  d E =-.903743E-04  mag=     2.1721
       N       E                     dE             d eps       ncg     rms          rms(c)
DAV:   1    -0.116514822459E+04   -0.17922E-03   -0.12062E-02 12288   0.125E-01    0.379E-02
RMM:   2    -0.116514822787E+04   -0.32727E-05   -0.43969E-04 10972   0.256E-02    0.380E-02
RMM:   3    -0.116514821838E+04    0.94864E-05   -0.18044E-05  6255   0.588E-03    0.251E-02
RMM:   4    -0.116514821078E+04    0.76007E-05   -0.23831E-05  5887   0.514E-03    0.123E-02
RMM:   5    -0.116514820855E+04    0.22272E-05   -0.46487E-06  4567   0.257E-03    0.654E-03
RMM:   6    -0.116514820840E+04    0.14617E-06   -0.91233E-08  2130   0.168E-03    0.427E-03
RMM:   7    -0.116514820839E+04    0.14319E-07   -0.16503E-07  1318   0.178E-03    0.196E-03
RMM:   8    -0.116514820838E+04    0.80472E-08   -0.55726E-08  1050   0.181E-03
   3 F= -.11651482E+04 E0= -.11651429E+04  d E =-.162973E-03  mag=     2.1727
