       N       E                     dE             d eps       ncg     rms          rms(c)
DAV:   1     0.120859291074E+05    0.12086E+05   -0.42690E+05  6160   0.132E+03
DAV:   2     0.690963062277E+03   -0.11395E+05   -0.10179E+05  6160   0.380E+02
DAV:   3    -0.136889003294E+04   -0.20599E+04   -0.19847E+04  6592   0.168E+02
DAV:   4    -0.150723170796E+04   -0.13834E+03   -0.13609E+03  8096   0.458E+01
DAV:   5    -0.151615699726E+04   -0.89253E+01   -0.88861E+01 11112   0.108E+01    0.183E+02
RMM:   6    -0.117125437357E+04    0.34490E+03   -0.16335E+03  6273   0.357E+01    0.125E+02
RMM:   7    -0.115566280800E+04    0.15592E+02   -0.59716E+01  6400   0.120E+01    0.712E+01
RMM:   8    -0.115919740247E+04   -0.35346E+01   -0.20747E+01  7021   0.505E+00    0.352E+01
RMM:   9    -0.116340849082E+04   -0.42111E+01   -0.62915E+00  6549   0.308E+00    0.114E+01
RMM:  10    -0.116467170374E+04   -0.12632E+01   -0.15074E+00  7233   0.128E+00    0.651E+00
RMM:  11    -0.116567252864E+04   -0.10008E+01   -0.10263E+00  7794   0.820E-01    0.434E+00
RMM:  12    -0.116664503371E+04   -0.97251E+00   -0.96822E-01  6642   0.892E-01    0.208E+00
RMM:  13    -0.116677536226E+04   -0.13033E+00   -0.17921E-01  7515   0.438E-01    0.148E+00
RMM:  14    -0.116684492784E+04   -0.69566E-01   -0.12027E-01  7388   0.305E-01    0.773E-01
RMM:  15    -0.116685705450E+04   -0.12127E-01   -0.38185E-02  7590   0.180E-01    0.451E-01
RMM:  16    -0.116685844201E+04   -0.13875E-02   -0.10507E-02  8898   0.842E-02    0.276E-01
RMM:  17    -0.116685948550E+04   -0.10435E-02   -0.60636E-03  8014   0.601E-02    0.166E-01
RMM:  18    -0.116685953475E+04   -0.49245E-04   -0.17230E-03  6777   0.331E-02    0.843E-02
RMM:  19    -0.116685961769E+04   -0.82943E-04   -0.10399E-03  5297   0.200E-02    0.428E-02
RMM:  20    -0.116685967252E+04   -0.54830E-04   -0.54580E-04  5153   0.162E-02
   1 F= -.11668597E+04 E0= -.11668597E+04  d E =-.116686E+04  mag=    10.0005
       N       E                     dE             d eps       ncg     rms          rms(c)
DAV:   1    -0.111807634442E+04    0.48783E+02   -0.18826E+03  6784   0.370E+01    0.402E+01
RMM:   2    -0.117262450762E+04   -0.54548E+02   -0.28626E+02  6692   0.133E+01    0.307E+01
RMM:   3    -0.116750860837E+04    0.51159E+01   -0.13236E+01  6204   0.446E+00    0.226E+01
RMM:   4    -0.116660890678E+04    0.89970E+00   -0.27461E+00  7480   0.139E+00    0.184E+01
RMM:   5    -0.116631668990E+04    0.29222E+00   -0.40533E-01  7682   0.459E-01    0.142E+01
RMM:   6    -0.116598478707E+04    0.33190E+00   -0.70865E-01  6405   0.586E-01    0.571E+00
RMM:   7    -0.116596025450E+04    0.24533E-01   -0.25235E-01  6650   0.427E-01    0.172E+00
RMM:   8    -0.116596367771E+04   -0.34232E-02   -0.37945E-02  8817   0.123E-01    0.902E-01
RMM:   9    -0.116596447243E+04   -0.79472E-03   -0.10977E-02  7823   0.753E-02    0.435E-01
RMM:  10    -0.116596502909E+04   -0.55666E-03   -0.51565E-03  6470   0.617E-02    0.322E-01
RMM:  11    -0.116596509903E+04   -0.69933E-04   -0.18863E-03  5997   0.296E-02    0.946E-02
RMM:  12    -0.116596516802E+04   -0.68993E-04   -0.84647E-04  4977   0.186E-02
   2 F= -.11659652E+04 E0= -.11659652E+04  d E =0.894504E+00  mag=     9.9932
       N       E                     dE             d eps       ncg     rms          rms(c)
DAV:   1    -0.115902727824E+04    0.69378E+01   -0.31971E+02  6848   0.159E+01    0.149E+01
RMM:   2    -0.116780633794E+04   -0.87791E+01   -0.21829E+01  6421   0.472E+00    0.226E+01
RMM:   3    -0.116782940482E+04   -0.23067E-01   -0.13906E+00  6240   0.179E+00    0.644E+00
RMM:   4    -0.116773979053E+04    0.89614E-01   -0.60724E-01  6839   0.717E-01    0.431E+00
RMM:   5    -0.116769084043E+04    0.48950E-01   -0.11393E-01  6578   0.308E-01    0.200E+00
RMM:   6    -0.116768409582E+04    0.67446E-02   -0.50209E-02  6519   0.215E-01    0.758E-01
RMM:   7    -0.116768452222E+04   -0.42640E-03   -0.80795E-03  7675   0.830E-02    0.440E-01
RMM:   8    -0.116768444273E+04    0.79487E-04   -0.14130E-03  7110   0.322E-02    0.254E-01
RMM:   9    -0.116768448847E+04   -0.45740E-04   -0.79380E-04  6334   0.254E-02
   3 F= -.11676845E+04 E0= -.11676845E+04  d E =-.171932E+01  mag=     9.9996
       N       E                     dE             d eps       ncg     rms          rms(c)
DAV:   1    -0.116777012418E+04   -0.85681E-01   -0.56079E+01  6760   0.681E+00    0.473E+00
RMM:   2    -0.116806450601E+04   -0.29438E+00   -0.15175E+00  6161   0.136E+00    0.332E+00
RMM:   3    -0.116809650792E+04   -0.32002E-01   -0.86143E-02  6349   0.428E-01    0.162E+00
RMM:   4    -0.116808878502E+04    0.77229E-02   -0.24927E-02  6516   0.151E-01    0.103E+00
RMM:   5    -0.116808689794E+04    0.18871E-02   -0.76121E-03  6209   0.891E-02    0.231E-01
RMM:   6    -0.116808693462E+04   -0.36681E-04   -0.13889E-03  6569   0.325E-02    0.148E-01
RMM:   7    -0.116808691991E+04    0.14710E-04   -0.28951E-04  4585   0.153E-02    0.106E-01
RMM:   8    -0.116808692258E+04   -0.26686E-05   -0.13850E-04  4140   0.143E-02
   4 F= -.11680869E+04 E0= -.11680869E+04  d E =-.402434E+00  mag=    10.0000
       N       E                     dE             d eps       ncg     rms          rms(c)
DAV:   1    -0.116802558199E+04    0.61338E-01   -0.38299E+01  6488   0.525E+00    0.436E+00
RMM:   2    -0.116827051029E+04   -0.24493E+00   -0.95154E-01  6184   0.101E+00    0.290E+00
RMM:   3    -0.116830239645E+04   -0.31886E-01   -0.58968E-02  6352   0.349E-01    0.134E+00
RMM:   4    -0.116829775452E+04    0.46419E-02   -0.18147E-02  6671   0.122E-01    0.886E-01
RMM:   5    -0.116829657537E+04    0.11791E-02   -0.58260E-03  6361   0.695E-02    0.241E-01
RMM:   6    -0.116829658902E+04   -0.13647E-04   -0.10405E-03  6165   0.283E-02    0.149E-01
RMM:   7    -0.116829658521E+04    0.38132E-05   -0.23546E-04  4411   0.150E-02    0.110E-01
RMM:   8    -0.116829659212E+04   -0.69188E-05   -0.12451E-04  3988   0.146E-02
   5 F= -.11682966E+04 E0= -.11682966E+04  d E =-.209670E+00  mag=    10.0000
       N       E                     dE             d eps       ncg     rms          rms(c)
DAV:   1    -0.116817484431E+04    0.12174E+00   -0.33871E+01  6472   0.571E+00    0.369E+00
RMM:   2    -0.116834504575E+04   -0.17020E+00   -0.87316E-01  6174   0.111E+00    0.250E+00
RMM:   3    -0.116836467204E+04   -0.19626E-01   -0.50388E-02  6544   0.331E-01    0.143E+00
RMM:   4    -0.116836059172E+04    0.40803E-02   -0.20264E-02  6559   0.135E-01    0.545E-01
RMM:   5    -0.116836041179E+04    0.17993E-03   -0.47341E-03  6574   0.690E-02    0.318E-01
RMM:   6    -0.116836037660E+04    0.35189E-04   -0.58964E-04  5434   0.226E-02    0.130E-01
RMM:   7    -0.116836035798E+04    0.18619E-04   -0.22144E-04  4281   0.145E-02    0.916E-02
RMM:   8    -0.116836036030E+04   -0.23247E-05   -0.12357E-04  3869   0.144E-02
   6 F= -.11683604E+04 E0= -.11683604E+04  d E =-.637682E-01  mag=    10.0000
       N       E                     dE             d eps       ncg     rms          rms(c)
DAV:   1    -0.116837082373E+04   -0.10466E-01   -0.99154E+00  6512   0.342E+00    0.118E+00
RMM:   2    -0.116839780369E+04   -0.26980E-01   -0.25592E-01  6178   0.646E-01    0.938E-01
RMM:   3    -0.116839910112E+04   -0.12974E-02   -0.16134E-02  6728   0.184E-01    0.620E-01
RMM:   4    -0.116839811524E+04    0.98588E-03   -0.27036E-03  7083   0.557E-02    0.357E-01
RMM:   5    -0.116839785558E+04    0.25966E-03   -0.18984E-03  5971   0.400E-02    0.886E-02
RMM:   6    -0.116839784356E+04    0.12017E-04   -0.18776E-04  4055   0.189E-02    0.772E-02
RMM:   7    -0.116839784892E+04   -0.53594E-05   -0.71129E-05  3658   0.884E-03    0.343E-02
RMM:   8    -0.116839784669E+04    0.22347E-05   -0.50743E-05  3584   0.929E-03
   7 F= -.11683978E+04 E0= -.11683978E+04  d E =-.374864E-01  mag=    10.0000
       N       E                     dE             d eps       ncg     rms          rms(c)
DAV:   1    -0.116838999619E+04    0.78527E-02   -0.16319E+01  6368   0.450E+00    0.957E-01
RMM:   2    -0.116842791977E+04   -0.37924E-01   -0.37889E-01  6183   0.759E-01    0.630E-01
RMM:   3    -0.116842879265E+04   -0.87288E-03   -0.19820E-02  6323   0.250E-01    0.385E-01
RMM:   4    -0.116842781539E+04    0.97726E-03   -0.49036E-03  7871   0.735E-02    0.219E-01
RMM:   5    -0.116842758721E+04    0.22818E-03   -0.18690E-03  6901   0.388E-02    0.149E-01
RMM:   6    -0.116842760026E+04   -0.13051E-04   -0.31320E-04  4949   0.184E-02    0.433E-02
RMM:   7    -0.116842760826E+04   -0.80047E-05   -0.12416E-04  3897   0.120E-02    0.292E-02
RMM:   8    -0.116842761405E+04   -0.57900E-05   -0.10007E-04  3787   0.105E-02
   8 F= -.11684276E+04 E0= -.11684276E+04  d E =-.297674E-01  mag=    10.0000
       N       E                     dE             d eps       ncg     rms          rms(c)
DAV:   1    -0.116842873692E+04   -0.11287E-02   -0.75193E+00  6392   0.309E+00    0.560E-01
RMM:   2    -0.116844486275E+04   -0.16126E-01   -0.17589E-01  6176   0.514E-01    0.371E-01
RMM:   3    -0.116844486158E+04    0.11707E-05   -0.92603E-03  6233   0.176E-01    0.246E-01
RMM:   4    -0.116844445231E+04    0.40926E-03   -0.25433E-03  7511   0.516E-02    0.151E-01
RMM:   5    -0.116844436817E+04    0.84145E-04   -0.80142E-04  6328   0.261E-02    0.498E-02
RMM:   6    -0.116844438208E+04   -0.13910E-04   -0.15702E-04  3924   0.132E-02    0.291E-02
RMM:   7    -0.116844438674E+04   -0.46648E-05   -0.66682E-05  3647   0.960E-03    0.183E-02
RMM:   8    -0.116844439164E+04   -0.49000E-05   -0.63796E-05  3565   0.863E-03
   9 F= -.11684444E+04 E0= -.11684444E+04  d E =-.167776E-01  mag=    10.0000
       N       E                     dE             d eps       ncg     rms          rms(c)
DAV:   1    -0.116843994296E+04    0.44438E-02   -0.10326E+01  6360   0.364E+00    0.612E-01
RMM:   2    -0.116846202471E+04   -0.22082E-01   -0.24125E-01  6167   0.603E-01    0.408E-01
RMM:   3    -0.116846194447E+04    0.80246E-04   -0.12440E-02  6200   0.207E-01    0.274E-01
RMM:   4    -0.116846150355E+04    0.44091E-03   -0.35312E-03  7763   0.608E-02    0.177E-01
RMM:   5    -0.116846144327E+04    0.60282E-04   -0.86400E-04  6491   0.266E-02    0.600E-02
RMM:   6    -0.116846146283E+04   -0.19556E-04   -0.20894E-04  4181   0.140E-02    0.268E-02
RMM:   7    -0.116846146959E+04   -0.67608E-05   -0.83683E-05  3756   0.107E-02    0.185E-02
RMM:   8    -0.116846147569E+04   -0.61037E-05   -0.84023E-05  3630   0.931E-03
  10 F= -.11684615E+04 E0= -.11684615E+04  d E =-.170840E-01  mag=    10.0000
       N       E                     dE             d eps       ncg     rms          rms(c)
DAV:   1    -0.116845882104E+04    0.26485E-02   -0.67141E+00  6376   0.294E+00    0.503E-01
RMM:   2    -0.116847326812E+04   -0.14447E-01   -0.15677E-01  6162   0.487E-01    0.330E-01
RMM:   3    -0.116847321436E+04    0.53767E-04   -0.80612E-03  6177   0.167E-01    0.219E-01
RMM:   4    -0.116847292162E+04    0.29274E-03   -0.24539E-03  7321   0.506E-02    0.129E-01
RMM:   5    -0.116847290701E+04    0.14608E-04   -0.49130E-04  5534   0.218E-02    0.498E-02
RMM:   6    -0.116847292066E+04   -0.13653E-04   -0.12663E-04  3837   0.126E-02    0.200E-02
RMM:   7    -0.116847292786E+04   -0.71953E-05   -0.86844E-05  3689   0.101E-02    0.160E-02
RMM:   8    -0.116847293159E+04   -0.37370E-05   -0.53161E-05  3469   0.794E-03
  11 F= -.11684729E+04 E0= -.11684729E+04  d E =-.114559E-01  mag=    10.0000
       N       E                     dE             d eps       ncg     rms          rms(c)
DAV:   1    -0.116847077250E+04    0.21554E-02   -0.53069E+00  6360   0.263E+00    0.451E-01
RMM:   2    -0.116848229815E+04   -0.11526E-01   -0.12424E-01  6167   0.434E-01    0.287E-01
RMM:   3    -0.116848227538E+04    0.22761E-04   -0.64251E-03  6166   0.150E-01    0.188E-01
RMM:   4    -0.116848204316E+04    0.23222E-03   -0.19057E-03  7129   0.448E-02    0.983E-02
RMM:   5    -0.116848204831E+04   -0.51463E-05   -0.36740E-04  5080   0.196E-02    0.376E-02
RMM:   6    -0.116848205797E+04   -0.96683E-05   -0.88845E-05  3717   0.118E-02    0.163E-02
RMM:   7    -0.116848206473E+04   -0.67543E-05   -0.75835E-05  3575   0.961E-03    0.119E-02
RMM:   8    -0.116848206805E+04   -0.33198E-05   -0.44484E-05  3376   0.768E-03
  12 F= -.11684821E+04 E0= -.11684821E+04  d E =-.913645E-02  mag=    10.0000
       N       E                     dE             d eps       ncg     rms          rms(c)
DAV:   1    -0.116847946984E+04    0.25949E-02   -0.50264E+00  6392   0.256E+00    0.447E-01
RMM:   2    -0.116849042105E+04   -0.10951E-01   -0.11743E-01  6182   0.424E-01    0.280E-01
RMM:   3    -0.116849039824E+04    0.22814E-04   -0.60236E-03  6189   0.144E-01    0.182E-01
RMM:   4    -0.116849016239E+04    0.23585E-03   -0.17233E-03  7053   0.429E-02    0.904E-02
RMM:   5    -0.116849016500E+04   -0.26081E-05   -0.36677E-04  5073   0.197E-02    0.386E-02
RMM:   6    -0.116849017242E+04   -0.74147E-05   -0.79036E-05  3661   0.116E-02    0.167E-02
RMM:   7    -0.116849017825E+04   -0.58361E-05   -0.64367E-05  3554   0.917E-03    0.109E-02
RMM:   8    -0.116849018140E+04   -0.31438E-05   -0.41331E-05  3391   0.782E-03
  13 F= -.11684902E+04 E0= -.11684902E+04  d E =-.811335E-02  mag=    10.0000
       N       E                     dE             d eps       ncg     rms          rms(c)
DAV:   1    -0.116849118281E+04   -0.10046E-02   -0.73750E-01  6528   0.967E-01    0.307E-01
RMM:   2    -0.116849329421E+04   -0.21114E-02   -0.18250E-02  6216   0.171E-01    0.204E-01
RMM:   3    -0.116849339496E+04   -0.10074E-03   -0.10540E-03  5784   0.529E-02    0.125E-01
RMM:   4    -0.116849333460E+04    0.60358E-04   -0.23020E-04  3976   0.175E-02    0.629E-02
RMM:   5    -0.116849332568E+04    0.89173E-05   -0.93113E-05  3603   0.123E-02    0.340E-02
RMM:   6    -0.116849332782E+04   -0.21389E-05   -0.31355E-05  3455   0.897E-03    0.303E-02
RMM:   7    -0.116849332952E+04   -0.16954E-05   -0.17040E-05  3336   0.534E-03    0.108E-02
RMM:   8    -0.116849333040E+04   -0.88314E-06   -0.10415E-05  3128   0.539E-03
  14 F= -.11684933E+04 E0= -.11684933E+04  d E =-.314900E-02  mag=    10.0000
       N       E                     dE             d eps       ncg     rms          rms(c)
DAV:   1    -0.116849148808E+04    0.18414E-02   -0.33607E+00  6352   0.209E+00    0.387E-01
RMM:   2    -0.116849896302E+04   -0.74749E-02   -0.78454E-02  6172   0.348E-01    0.243E-01
RMM:   3    -0.116849899888E+04   -0.35856E-04   -0.40258E-03  6149   0.118E-01    0.157E-01
RMM:   4    -0.116849884498E+04    0.15390E-03   -0.10687E-03  6522   0.343E-02    0.844E-02
RMM:   5    -0.116849883653E+04    0.84510E-05   -0.26583E-04  4286   0.180E-02    0.472E-02
RMM:   6    -0.116849884265E+04   -0.61218E-05   -0.61509E-05  3575   0.109E-02    0.178E-02
RMM:   7    -0.116849884610E+04   -0.34546E-05   -0.35366E-05  3437   0.775E-03    0.111E-02
RMM:   8    -0.116849884801E+04   -0.19089E-05   -0.24377E-05  3335   0.706E-03
  15 F= -.11684988E+04 E0= -.11684988E+04  d E =-.551761E-02  mag=    10.0000
       N       E                     dE             d eps       ncg     rms          rms(c)
DAV:   1    -0.116849983950E+04   -0.99340E-03   -0.11412E+00  6416   0.123E+00    0.215E-01
RMM:   2    -0.116850233975E+04   -0.25002E-02   -0.27077E-02  6195   0.206E-01    0.131E-01
RMM:   3    -0.116850233287E+04    0.68796E-05   -0.14088E-03  5945   0.687E-02    0.863E-02
RMM:   4    -0.116850227581E+04    0.57058E-04   -0.36643E-04  4541   0.207E-02    0.455E-02
RMM:   5    -0.116850227193E+04    0.38830E-05   -0.84933E-05  3579   0.129E-02    0.168E-02
RMM:   6    -0.116850227573E+04   -0.38057E-05   -0.32435E-05  3473   0.829E-03    0.129E-02
RMM:   7    -0.116850227766E+04   -0.19276E-05   -0.19309E-05  3312   0.608E-03    0.749E-03
RMM:   8    -0.116850227883E+04   -0.11712E-05   -0.12523E-05  3155   0.520E-03
  16 F= -.11685023E+04 E0= -.11685023E+04  d E =-.343082E-02  mag=    10.0000
       N       E                     dE             d eps       ncg     rms          rms(c)
DAV:   1    -0.116850284223E+04   -0.56457E-03   -0.14092E+00  6400   0.136E+00    0.238E-01
RMM:   2    -0.116850593256E+04   -0.30903E-02   -0.33231E-02  6188   0.228E-01    0.145E-01
RMM:   3    -0.116850592837E+04    0.41898E-05   -0.17106E-03  6022   0.756E-02    0.940E-02
RMM:   4    -0.116850585991E+04    0.68467E-04   -0.45045E-04  4856   0.225E-02    0.493E-02
RMM:   5    -0.116850585415E+04    0.57597E-05   -0.97098E-05  3591   0.138E-02    0.241E-02
RMM:   6    -0.116850585856E+04   -0.44112E-05   -0.35768E-05  3478   0.893E-03    0.139E-02
RMM:   7    -0.116850586078E+04   -0.22215E-05   -0.21187E-05  3343   0.639E-03    0.919E-03
RMM:   8    -0.116850586208E+04   -0.12978E-05   -0.13792E-05  3200   0.558E-03
  17 F= -.11685059E+04 E0= -.11685059E+04  d E =-.358325E-02  mag=    10.0000
       N       E                     dE             d eps       ncg     rms          rms(c)
DAV:   1    -0.116850662596E+04   -0.76518E-03   -0.94105E-01  6432   0.112E+00    0.192E-01
RMM:   2    -0.116850868811E+04   -0.20621E-02   -0.22271E-02  6209   0.187E-01    0.116E-01
RMM:   3    -0.116850868060E+04    0.75168E-05   -0.11409E-03  5721   0.613E-02    0.757E-02
RMM:   4    -0.116850863432E+04    0.46277E-04   -0.28806E-04  4132   0.187E-02    0.386E-02
RMM:   5    -0.116850863326E+04    0.10620E-05   -0.67776E-05  3542   0.117E-02    0.194E-02
RMM:   6    -0.116850863647E+04   -0.32137E-05   -0.27292E-05  3436   0.752E-03    0.114E-02
RMM:   7    -0.116850863820E+04   -0.17297E-05   -0.16195E-05  3290   0.570E-03    0.772E-03
RMM:   8    -0.116850863923E+04   -0.10284E-05   -0.10565E-05  2948   0.473E-03
  18 F= -.11685086E+04 E0= -.11685086E+04  d E =-.277715E-02  mag=    10.0000
       N       E                     dE             d eps       ncg     rms          rms(c)
DAV:   1    -0.116850963732E+04   -0.99912E-03   -0.60596E-01  6368   0.900E-01    0.159E-01
RMM:   2    -0.116851097695E+04   -0.13396E-02   -0.14484E-02  6222   0.151E-01    0.981E-02
RMM:   3    -0.116851097221E+04    0.47432E-05   -0.72743E-04  5184   0.489E-02    0.639E-02
RMM:   4    -0.116851094150E+04    0.30706E-04   -0.15780E-04  3678   0.152E-02    0.351E-02
RMM:   5    -0.116851094019E+04    0.13143E-05   -0.53100E-05  3516   0.995E-03    0.212E-02
RMM:   6    -0.116851094255E+04   -0.23629E-05   -0.21116E-05  3398   0.676E-03    0.113E-02
RMM:   7    -0.116851094390E+04   -0.13492E-05   -0.12379E-05  3231   0.484E-03    0.735E-03
RMM:   8    -0.116851094458E+04   -0.68470E-06   -0.72422E-06  2695   0.420E-03
  19 F= -.11685109E+04 E0= -.11685109E+04  d E =-.230536E-02  mag=    10.0000
       N       E                     dE             d eps       ncg     rms          rms(c)
DAV:   1    -0.116851182055E+04   -0.87665E-03   -0.59943E-01  6312   0.894E-01    0.161E-01
RMM:   2    -0.116851316088E+04   -0.13403E-02   -0.14322E-02  6203   0.150E-01    0.965E-02
RMM:   3    -0.116851316044E+04    0.44065E-06   -0.71833E-04  5196   0.492E-02    0.621E-02
RMM:   4    -0.116851312920E+04    0.31240E-04   -0.15734E-04  3683   0.151E-02    0.336E-02
RMM:   5    -0.116851312865E+04    0.54881E-06   -0.49728E-05  3515   0.968E-03    0.197E-02
RMM:   6    -0.116851313098E+04   -0.23341E-05   -0.20406E-05  3397   0.653E-03    0.998E-03
RMM:   7    -0.116851313227E+04   -0.12927E-05   -0.11842E-05  3155   0.472E-03    0.703E-03
RMM:   8    -0.116851313292E+04   -0.65000E-06   -0.68380E-06  2644   0.400E-03
  20 F= -.11685131E+04 E0= -.11685131E+04  d E =-.218834E-02  mag=    10.0000
       N       E                     dE             d eps       ncg     rms          rms(c)
DAV:   1    -0.116851398979E+04   -0.85752E-03   -0.44491E-01  6336   0.770E-01    0.134E-01
RMM:   2    -0.116851497655E+04   -0.98676E-03   -0.10647E-02  6192   0.129E-01    0.812E-02
RMM:   3    -0.116851497273E+04    0.38241E-05   -0.52030E-04  4699   0.425E-02    0.530E-02
RMM:   4    -0.116851495062E+04    0.22111E-04   -0.12047E-04  3574   0.134E-02    0.296E-02
RMM:   5    -0.116851495133E+04   -0.71189E-06   -0.38558E-05  3468   0.852E-03    0.199E-02
RMM:   6    -0.116851495321E+04   -0.18819E-05   -0.16979E-05  3344   0.602E-03    0.891E-03
RMM:   7    -0.116851495431E+04   -0.11009E-05   -0.98845E-06  3033   0.433E-03    0.642E-03
RMM:   8    -0.116851495485E+04   -0.53560E-06   -0.55361E-06  2483   0.370E-03
  21 F= -.11685150E+04 E0= -.11685150E+04  d E =-.182192E-02  mag=    10.0000
