       N       E                     dE             d eps       ncg     rms          rms(c)
DAV:   1     0.120774203493E+05    0.12077E+05   -0.42683E+05  6160   0.132E+03
DAV:   2     0.692031126148E+03   -0.11385E+05   -0.10177E+05  6152   0.379E+02
DAV:   3    -0.137043768173E+04   -0.20625E+04   -0.19817E+04  6600   0.167E+02
DAV:   4    -0.150908878374E+04   -0.13865E+03   -0.13642E+03  8080   0.458E+01
DAV:   5    -0.151798377680E+04   -0.88950E+01   -0.88555E+01 11080   0.107E+01    0.180E+02
RMM:   6    -0.117226199787E+04    0.34572E+03   -0.16399E+03  6256   0.356E+01    0.122E+02
RMM:   7    -0.115590398298E+04    0.16358E+02   -0.60789E+01  6398   0.119E+01    0.726E+01
RMM:   8    -0.115915116576E+04   -0.32472E+01   -0.20244E+01  7079   0.495E+00    0.365E+01
RMM:   9    -0.116364815048E+04   -0.44970E+01   -0.69430E+00  6533   0.312E+00    0.108E+01
RMM:  10    -0.116474127779E+04   -0.10931E+01   -0.18321E+00  6972   0.142E+00    0.694E+00
RMM:  11    -0.116583064824E+04   -0.10894E+01   -0.12585E+00  7250   0.911E-01    0.505E+00
RMM:  12    -0.116645236199E+04   -0.62171E+00   -0.43753E-01  7291   0.646E-01    0.278E+00
RMM:  13    -0.116686709707E+04   -0.41474E+00   -0.37640E-01  6820   0.541E-01    0.139E+00
RMM:  14    -0.116695708239E+04   -0.89985E-01   -0.16477E-01  7153   0.384E-01    0.789E-01
RMM:  15    -0.116696863779E+04   -0.11555E-01   -0.42556E-02  7542   0.193E-01    0.620E-01
RMM:  16    -0.116697124303E+04   -0.26052E-02   -0.13489E-02  8547   0.962E-02    0.333E-01
RMM:  17    -0.116697169800E+04   -0.45497E-03   -0.50009E-03  7565   0.589E-02    0.162E-01
RMM:  18    -0.116697181337E+04   -0.11537E-03   -0.16014E-03  6469   0.292E-02    0.752E-02
RMM:  19    -0.116697191310E+04   -0.99737E-04   -0.85794E-04  5150   0.186E-02
   1 F= -.11669719E+04 E0= -.11669719E+04  d E =-.116697E+04  mag=    10.0050
       N       E                     dE             d eps       ncg     rms          rms(c)
DAV:   1    -0.116041258801E+04    0.65592E+01   -0.59260E+02  7136   0.262E+01    0.149E+01
RMM:   2    -0.116808050756E+04   -0.76679E+01   -0.30805E+01  6156   0.666E+00    0.217E+01
RMM:   3    -0.116816803405E+04   -0.87526E-01   -0.17605E+00  6464   0.219E+00    0.117E+01
RMM:   4    -0.116795930730E+04    0.20873E+00   -0.74493E-01  7342   0.882E-01    0.677E+00
RMM:   5    -0.116781157873E+04    0.14773E+00   -0.37748E-01  6279   0.621E-01    0.371E+00
RMM:   6    -0.116781798515E+04   -0.64064E-02   -0.10082E-01  6930   0.367E-01    0.150E+00
RMM:   7    -0.116781665070E+04    0.13345E-02   -0.15228E-02  9247   0.106E-01    0.931E-01
RMM:   8    -0.116781500428E+04    0.16464E-02   -0.58991E-03  8106   0.680E-02    0.676E-01
RMM:   9    -0.116781481786E+04    0.18642E-03   -0.27340E-03  7374   0.466E-02    0.207E-01
RMM:  10    -0.116781487048E+04   -0.52615E-04   -0.60352E-04  6369   0.266E-02
   2 F= -.11678149E+04 E0= -.11678149E+04  d E =-.842957E+00  mag=    10.0003
       N       E                     dE             d eps       ncg     rms          rms(c)
DAV:   1    -0.116816643219E+04   -0.35161E+00   -0.77987E+01  6832   0.966E+00    0.603E+00
RMM:   2    -0.116840609557E+04   -0.23966E+00   -0.29411E+00  6149   0.219E+00    0.586E+00
RMM:   3    -0.116841259188E+04   -0.64963E-02   -0.16701E-01  6612   0.618E-01    0.393E+00
RMM:   4    -0.116838686805E+04    0.25724E-01   -0.82536E-02  6519   0.310E-01    0.202E+00
RMM:   5    -0.116838127604E+04    0.55920E-02   -0.36430E-02  6251   0.203E-01    0.886E-01
RMM:   6    -0.116838062770E+04    0.64834E-03   -0.62730E-03  6576   0.813E-02    0.389E-01
RMM:   7    -0.116837994064E+04    0.68706E-03   -0.14310E-03  5954   0.329E-02    0.200E-01
RMM:   8    -0.116837988185E+04    0.58796E-04   -0.50723E-04  5204   0.230E-02
   3 F= -.11683799E+04 E0= -.11683799E+04  d E =-.140797E+01  mag=    10.0000
       N       E                     dE             d eps       ncg     rms          rms(c)
DAV:   1    -0.116804318136E+04    0.33676E+00   -0.13348E+02  6440   0.125E+01    0.623E+00
RMM:   2    -0.116872558126E+04   -0.68240E+00   -0.38307E+00  6145   0.243E+00    0.548E+00
RMM:   3    -0.116879984513E+04   -0.74264E-01   -0.18283E-01  6285   0.752E-01    0.220E+00
RMM:   4    -0.116878677817E+04    0.13067E-01   -0.48739E-02  7181   0.231E-01    0.128E+00
RMM:   5    -0.116877935185E+04    0.74263E-02   -0.30619E-02  6815   0.175E-01    0.117E+00
RMM:   6    -0.116877969918E+04   -0.34733E-03   -0.95844E-03  7331   0.105E-01    0.321E-01
RMM:   7    -0.116877943989E+04    0.25928E-03   -0.13248E-03  6995   0.341E-02    0.217E-01
RMM:   8    -0.116877934466E+04    0.95230E-04   -0.66500E-04  5912   0.240E-02
   4 F= -.11687793E+04 E0= -.11687793E+04  d E =-.399463E+00  mag=    10.0000
       N       E                     dE             d eps       ncg     rms          rms(c)
DAV:   1    -0.116876568988E+04    0.13750E-01   -0.49236E+00  7000   0.240E+00    0.119E+00
RMM:   2    -0.116878877277E+04   -0.23083E-01   -0.13506E-01  6147   0.450E-01    0.831E-01
RMM:   3    -0.116879139689E+04   -0.26241E-02   -0.64938E-03  6274   0.139E-01    0.394E-01
RMM:   4    -0.116879074912E+04    0.64777E-03   -0.24696E-03  6332   0.513E-02    0.190E-01
RMM:   5    -0.116879066284E+04    0.86275E-04   -0.70979E-04  5346   0.295E-02    0.181E-01
RMM:   6    -0.116879066331E+04   -0.46859E-06   -0.13741E-04  4041   0.151E-02    0.437E-02
RMM:   7    -0.116879066200E+04    0.13144E-05   -0.46144E-05  3730   0.976E-03    0.349E-02
RMM:   8    -0.116879066425E+04   -0.22505E-05   -0.37695E-05  3659   0.807E-03
   5 F= -.11687907E+04 E0= -.11687907E+04  d E =-.410782E+00  mag=    10.0000
       N       E                     dE             d eps       ncg     rms          rms(c)
DAV:   1    -0.116881061499E+04   -0.19953E-01   -0.44290E+01  6336   0.768E+00    0.199E+00
RMM:   2    -0.116889971469E+04   -0.89100E-01   -0.12842E+00  6151   0.143E+00    0.194E+00
RMM:   3    -0.116889450629E+04    0.52084E-02   -0.60221E-02  6537   0.420E-01    0.131E+00
RMM:   4    -0.116888621150E+04    0.82948E-02   -0.26682E-02  6795   0.171E-01    0.776E-01
RMM:   5    -0.116888312349E+04    0.30880E-02   -0.91681E-03  6767   0.103E-01    0.428E-01
RMM:   6    -0.116888319717E+04   -0.73682E-04   -0.12544E-03  7085   0.360E-02    0.136E-01
RMM:   7    -0.116888315831E+04    0.38856E-04   -0.39119E-04  5380   0.179E-02    0.947E-02
RMM:   8    -0.116888315159E+04    0.67195E-05   -0.22646E-04  4449   0.168E-02
   6 F= -.11688832E+04 E0= -.11688832E+04  d E =-.924873E-01  mag=    10.0000
       N       E                     dE             d eps       ncg     rms          rms(c)
DAV:   1    -0.116888360963E+04   -0.45131E-03   -0.46832E-01  6984   0.789E-01    0.206E-01
RMM:   2    -0.116888456402E+04   -0.95439E-03   -0.13458E-02  6112   0.147E-01    0.195E-01
RMM:   3    -0.116888450524E+04    0.58783E-04   -0.56316E-04  5256   0.429E-02    0.131E-01
RMM:   4    -0.116888441749E+04    0.87747E-04   -0.25375E-04  4382   0.186E-02    0.795E-02
RMM:   5    -0.116888439019E+04    0.27303E-04   -0.70319E-05  3590   0.115E-02    0.454E-02
RMM:   6    -0.116888439105E+04   -0.86447E-06   -0.16697E-05  3376   0.621E-03    0.151E-02
RMM:   7    -0.116888439107E+04   -0.16065E-07   -0.53957E-06  2910   0.352E-03    0.103E-02
RMM:   8    -0.116888439118E+04   -0.11179E-06   -0.27206E-06  2367   0.271E-03
   7 F= -.11688844E+04 E0= -.11688844E+04  d E =-.937269E-01  mag=    10.0000
       N       E                     dE             d eps       ncg     rms          rms(c)
DAV:   1    -0.116888209776E+04    0.22933E-02   -0.17955E+01  6368   0.498E+00    0.143E+00
RMM:   2    -0.116892845062E+04   -0.46353E-01   -0.48016E-01  6151   0.894E-01    0.111E+00
RMM:   3    -0.116892955149E+04   -0.11009E-02   -0.23762E-02  6412   0.280E-01    0.697E-01
RMM:   4    -0.116892792364E+04    0.16279E-02   -0.70296E-03  7336   0.905E-02    0.391E-01
RMM:   5    -0.116892757535E+04    0.34829E-03   -0.31009E-03  6870   0.544E-02    0.224E-01
RMM:   6    -0.116892756627E+04    0.90880E-05   -0.39961E-04  5084   0.236E-02    0.742E-02
RMM:   7    -0.116892756995E+04   -0.36807E-05   -0.17191E-04  4128   0.133E-02    0.400E-02
RMM:   8    -0.116892757467E+04   -0.47190E-05   -0.10486E-04  3747   0.115E-02
   8 F= -.11689276E+04 E0= -.11689276E+04  d E =-.431835E-01  mag=    10.0000
       N       E                     dE             d eps       ncg     rms          rms(c)
DAV:   1    -0.116892299602E+04    0.45739E-02   -0.37098E+00  6432   0.226E+00    0.642E-01
RMM:   2    -0.116893259153E+04   -0.95955E-02   -0.99418E-02  6150   0.405E-01    0.495E-01
RMM:   3    -0.116893281045E+04   -0.21892E-03   -0.50356E-03  6387   0.129E-01    0.311E-01
RMM:   4    -0.116893247907E+04    0.33138E-03   -0.15694E-03  6833   0.420E-02    0.172E-01
RMM:   5    -0.116893241033E+04    0.68736E-04   -0.66509E-04  5717   0.259E-02    0.102E-01
RMM:   6    -0.116893240891E+04    0.14204E-05   -0.92801E-05  3772   0.131E-02    0.368E-02
RMM:   7    -0.116893241107E+04   -0.21603E-05   -0.48294E-05  3574   0.833E-03    0.169E-02
RMM:   8    -0.116893241282E+04   -0.17464E-05   -0.28086E-05  3497   0.735E-03
   9 F= -.11689324E+04 E0= -.11689324E+04  d E =-.480216E-01  mag=    10.0000
       N       E                     dE             d eps       ncg     rms          rms(c)
DAV:   1    -0.116892866810E+04    0.37430E-02   -0.17488E+01  6352   0.496E+00    0.114E+00
RMM:   2    -0.116896701012E+04   -0.38342E-01   -0.46480E-01  6167   0.863E-01    0.913E-01
RMM:   3    -0.116896656964E+04    0.44048E-03   -0.22978E-02  6370   0.281E-01    0.608E-01
RMM:   4    -0.116896546165E+04    0.11080E-02   -0.66794E-03  7906   0.888E-02    0.360E-01
RMM:   5    -0.116896512799E+04    0.33367E-03   -0.27378E-03  7294   0.517E-02    0.269E-01
RMM:   6    -0.116896513935E+04   -0.11362E-04   -0.55483E-04  5917   0.246E-02    0.619E-02
RMM:   7    -0.116896514797E+04   -0.86200E-05   -0.21927E-04  4335   0.142E-02    0.344E-02
RMM:   8    -0.116896515337E+04   -0.54059E-05   -0.12403E-04  3791   0.114E-02
  10 F= -.11689652E+04 E0= -.11689652E+04  d E =-.327406E-01  mag=    10.0000
       N       E                     dE             d eps       ncg     rms          rms(c)
DAV:   1    -0.116896100885E+04    0.41391E-02   -0.37279E+00  6400   0.229E+00    0.525E-01
RMM:   2    -0.116896925124E+04   -0.82424E-02   -0.99818E-02  6174   0.398E-01    0.421E-01
RMM:   3    -0.116896913505E+04    0.11619E-03   -0.49682E-03  6328   0.130E-01    0.280E-01
RMM:   4    -0.116896890608E+04    0.22897E-03   -0.15163E-03  7306   0.414E-02    0.166E-01
RMM:   5    -0.116896883480E+04    0.71273E-04   -0.63232E-04  5807   0.256E-02    0.125E-01
RMM:   6    -0.116896883519E+04   -0.38261E-06   -0.12266E-04  3810   0.137E-02    0.352E-02
RMM:   7    -0.116896883769E+04   -0.25016E-05   -0.55396E-05  3582   0.972E-03    0.165E-02
RMM:   8    -0.116896883995E+04   -0.22570E-05   -0.33439E-05  3473   0.735E-03
  11 F= -.11689688E+04 E0= -.11689688E+04  d E =-.364271E-01  mag=    10.0000
       N       E                     dE             d eps       ncg     rms          rms(c)
DAV:   1    -0.116895214332E+04    0.16694E-01   -0.16737E+01  6400   0.481E+00    0.988E-01
RMM:   2    -0.116898995159E+04   -0.37808E-01   -0.44754E-01  6148   0.843E-01    0.760E-01
RMM:   3    -0.116898946216E+04    0.48943E-03   -0.21071E-02  6437   0.262E-01    0.506E-01
RMM:   4    -0.116898829312E+04    0.11690E-02   -0.65452E-03  7733   0.851E-02    0.333E-01
RMM:   5    -0.116898793261E+04    0.36051E-03   -0.18042E-03  7317   0.412E-02    0.164E-01
RMM:   6    -0.116898796844E+04   -0.35830E-04   -0.45151E-04  5651   0.208E-02    0.469E-02
RMM:   7    -0.116898797667E+04   -0.82384E-05   -0.17337E-04  4110   0.136E-02    0.332E-02
RMM:   8    -0.116898798286E+04   -0.61856E-05   -0.11193E-04  3773   0.106E-02
  12 F= -.11689880E+04 E0= -.11689880E+04  d E =-.191429E-01  mag=    10.0000
       N       E                     dE             d eps       ncg     rms          rms(c)
DAV:   1    -0.116898753667E+04    0.44000E-03   -0.34261E-01  6784   0.688E-01    0.140E-01
RMM:   2    -0.116898833408E+04   -0.79741E-03   -0.94256E-03  6175   0.121E-01    0.110E-01
RMM:   3    -0.116898831578E+04    0.18299E-04   -0.44048E-04  4816   0.383E-02    0.740E-02
RMM:   4    -0.116898829164E+04    0.24140E-04   -0.14076E-04  3655   0.139E-02    0.465E-02
RMM:   5    -0.116898828750E+04    0.41349E-05   -0.53163E-05  3519   0.999E-03    0.400E-02
RMM:   6    -0.116898828991E+04   -0.24054E-05   -0.25773E-05  3439   0.733E-03    0.137E-02
RMM:   7    -0.116898829117E+04   -0.12652E-05   -0.14783E-05  3320   0.560E-03    0.120E-02
RMM:   8    -0.116898829201E+04   -0.83369E-06   -0.10012E-05  3049   0.451E-03
  13 F= -.11689883E+04 E0= -.11689883E+04  d E =-.194521E-01  mag=    10.0000
       N       E                     dE             d eps       ncg     rms          rms(c)
DAV:   1    -0.116897673674E+04    0.11554E-01   -0.11248E+01  6400   0.392E+00    0.958E-01
RMM:   2    -0.116900151861E+04   -0.24782E-01   -0.28799E-01  6154   0.686E-01    0.771E-01
RMM:   3    -0.116900145818E+04    0.60428E-04   -0.14359E-02  6458   0.214E-01    0.510E-01
RMM:   4    -0.116900059552E+04    0.86266E-03   -0.38886E-03  7890   0.671E-02    0.307E-01
RMM:   5    -0.116900041518E+04    0.18034E-03   -0.21003E-03  6884   0.426E-02    0.222E-01
RMM:   6    -0.116900038697E+04    0.28214E-04   -0.34977E-04  4874   0.215E-02    0.648E-02
RMM:   7    -0.116900038385E+04    0.31207E-05   -0.10346E-04  3783   0.125E-02    0.305E-02
RMM:   8    -0.116900038645E+04   -0.26053E-05   -0.70313E-05  3611   0.973E-03
  14 F= -.11690004E+04 E0= -.11690004E+04  d E =-.120944E-01  mag=    10.0000
       N       E                     dE             d eps       ncg     rms          rms(c)
DAV:   1    -0.116900028033E+04    0.10352E-03   -0.10222E-01  6752   0.374E-01    0.915E-02
RMM:   2    -0.116900052149E+04   -0.24116E-03   -0.27884E-03  6198   0.668E-02    0.757E-02
RMM:   3    -0.116900051451E+04    0.69780E-05   -0.12050E-04  3620   0.212E-02    0.526E-02
RMM:   4    -0.116900050965E+04    0.48668E-05   -0.46250E-05  3519   0.885E-03    0.301E-02
RMM:   5    -0.116900050849E+04    0.11585E-05   -0.29078E-05  3434   0.726E-03    0.345E-02
RMM:   6    -0.116900050933E+04   -0.84538E-06   -0.14048E-05  3217   0.561E-03    0.104E-02
RMM:   7    -0.116900050990E+04   -0.56520E-06   -0.69030E-06  2771   0.374E-03    0.549E-03
RMM:   8    -0.116900051027E+04   -0.37164E-06   -0.44488E-06  2383   0.327E-03
  15 F= -.11690005E+04 E0= -.11690005E+04  d E =-.122183E-01  mag=    10.0000
       N       E                     dE             d eps       ncg     rms          rms(c)
DAV:   1    -0.116899503927E+04    0.54706E-02   -0.69435E+00  6368   0.307E+00    0.606E-01
RMM:   2    -0.116901010831E+04   -0.15069E-01   -0.17288E-01  6161   0.516E-01    0.465E-01
RMM:   3    -0.116900991642E+04    0.19189E-03   -0.83006E-03  6288   0.167E-01    0.302E-01
RMM:   4    -0.116900952967E+04    0.38675E-03   -0.27923E-03  7426   0.543E-02    0.175E-01
RMM:   5    -0.116900941459E+04    0.11508E-03   -0.71698E-04  6161   0.256E-02    0.504E-02
RMM:   6    -0.116900941866E+04   -0.40715E-05   -0.10915E-04  3751   0.121E-02    0.259E-02
RMM:   7    -0.116900942320E+04   -0.45416E-05   -0.66826E-05  3637   0.107E-02    0.171E-02
RMM:   8    -0.116900942663E+04   -0.34323E-05   -0.40239E-05  3519   0.737E-03
  16 F= -.11690094E+04 E0= -.11690094E+04  d E =-.891636E-02  mag=    10.0000
       N       E                     dE             d eps       ncg     rms          rms(c)
DAV:   1    -0.116900667116E+04    0.27520E-02   -0.19390E+00  6416   0.163E+00    0.320E-01
RMM:   2    -0.116901092344E+04   -0.42523E-02   -0.48745E-02  6183   0.273E-01    0.247E-01
RMM:   3    -0.116901085588E+04    0.67560E-04   -0.23571E-03  6245   0.873E-02    0.160E-01
RMM:   4    -0.116901074407E+04    0.11180E-03   -0.79006E-04  6081   0.292E-02    0.907E-02
RMM:   5    -0.116901070932E+04    0.34748E-04   -0.17427E-04  4136   0.168E-02    0.251E-02
RMM:   6    -0.116901071452E+04   -0.51953E-05   -0.51156E-05  3570   0.107E-02    0.136E-02
RMM:   7    -0.116901071774E+04   -0.32179E-05   -0.35236E-05  3468   0.785E-03    0.124E-02
RMM:   8    -0.116901071945E+04   -0.17137E-05   -0.19230E-05  3285   0.651E-03
  17 F= -.11690107E+04 E0= -.11690107E+04  d E =-.102092E-01  mag=    10.0000
       N       E                     dE             d eps       ncg     rms          rms(c)
DAV:   1    -0.116900750826E+04    0.32095E-02   -0.46258E+00  6336   0.248E+00    0.497E-01
RMM:   2    -0.116901785910E+04   -0.10351E-01   -0.11044E-01  6160   0.409E-01    0.339E-01
RMM:   3    -0.116901786972E+04   -0.10625E-04   -0.54278E-03  6184   0.136E-01    0.214E-01
RMM:   4    -0.116901761669E+04    0.25303E-03   -0.16530E-03  7146   0.424E-02    0.125E-01
RMM:   5    -0.116901758077E+04    0.35921E-04   -0.39019E-04  5034   0.213E-02    0.114E-01
RMM:   6    -0.116901758925E+04   -0.84831E-05   -0.12060E-04  3687   0.139E-02    0.224E-02
RMM:   7    -0.116901759381E+04   -0.45570E-05   -0.50396E-05  3540   0.947E-03    0.156E-02
RMM:   8    -0.116901759681E+04   -0.30032E-05   -0.36351E-05  3412   0.719E-03
  18 F= -.11690176E+04 E0= -.11690176E+04  d E =-.687736E-02  mag=    10.0000
       N       E                     dE             d eps       ncg     rms          rms(c)
DAV:   1    -0.116900738384E+04    0.10210E-01   -0.60358E+00  6336   0.283E+00    0.569E-01
RMM:   2    -0.116902093166E+04   -0.13548E-01   -0.14452E-01  6170   0.468E-01    0.388E-01
RMM:   3    -0.116902093855E+04   -0.68869E-05   -0.70511E-03  6212   0.155E-01    0.245E-01
RMM:   4    -0.116902060736E+04    0.33119E-03   -0.21398E-03  7481   0.485E-02    0.143E-01
RMM:   5    -0.116902056401E+04    0.43352E-04   -0.52986E-04  5601   0.237E-02    0.130E-01
RMM:   6    -0.116902057453E+04   -0.10518E-04   -0.15931E-04  3838   0.143E-02    0.246E-02
RMM:   7    -0.116902057883E+04   -0.42991E-05   -0.55474E-05  3593   0.102E-02    0.156E-02
RMM:   8    -0.116902058286E+04   -0.40304E-05   -0.48467E-05  3488   0.759E-03
  19 F= -.11690206E+04 E0= -.11690206E+04  d E =-.986340E-02  mag=    10.0000
       N       E                     dE             d eps       ncg     rms          rms(c)
DAV:   1    -0.116902129274E+04   -0.71391E-03   -0.13119E+00  6488   0.133E+00    0.270E-01
RMM:   2    -0.116902414755E+04   -0.28548E-02   -0.32906E-02  6162   0.226E-01    0.201E-01
RMM:   3    -0.116902411218E+04    0.35363E-04   -0.16355E-03  6156   0.729E-02    0.128E-01
RMM:   4    -0.116902399645E+04    0.11574E-03   -0.56104E-04  5668   0.246E-02    0.705E-02
RMM:   5    -0.116902397425E+04    0.22196E-04   -0.11487E-04  3736   0.147E-02    0.299E-02
RMM:   6    -0.116902397831E+04   -0.40578E-05   -0.37400E-05  3523   0.902E-03    0.137E-02
RMM:   7    -0.116902398018E+04   -0.18739E-05   -0.22381E-05  3371   0.654E-03    0.110E-02
RMM:   8    -0.116902398143E+04   -0.12506E-05   -0.13705E-05  3116   0.531E-03
  20 F= -.11690240E+04 E0= -.11690240E+04  d E =-.339858E-02  mag=    10.0000
       N       E                     dE             d eps       ncg     rms          rms(c)
DAV:   1    -0.116902283198E+04    0.11482E-02   -0.99557E-01  6416   0.115E+00    0.235E-01
RMM:   2    -0.116902499539E+04   -0.21634E-02   -0.24953E-02  6159   0.197E-01    0.175E-01
RMM:   3    -0.116902496729E+04    0.28096E-04   -0.12238E-03  5966   0.629E-02    0.111E-01
RMM:   4    -0.116902487779E+04    0.89498E-04   -0.41439E-04  5008   0.212E-02    0.597E-02
RMM:   5    -0.116902486155E+04    0.16240E-04   -0.90525E-05  3622   0.134E-02    0.221E-02
RMM:   6    -0.116902486464E+04   -0.30839E-05   -0.29035E-05  3493   0.808E-03    0.125E-02
RMM:   7    -0.116902486613E+04   -0.14989E-05   -0.17236E-05  3318   0.584E-03    0.999E-03
RMM:   8    -0.116902486714E+04   -0.10015E-05   -0.10788E-05  3180   0.469E-03
  21 F= -.11690249E+04 E0= -.11690249E+04  d E =-.428428E-02  mag=    10.0000
       N       E                     dE             d eps       ncg     rms          rms(c)
DAV:   1    -0.116902506952E+04   -0.20339E-03   -0.10224E+00  6400   0.118E+00    0.218E-01
RMM:   2    -0.116902738598E+04   -0.23165E-02   -0.26005E-02  6156   0.201E-01    0.157E-01
RMM:   3    -0.116902735665E+04    0.29333E-04   -0.12434E-03  5990   0.646E-02    0.103E-01
RMM:   4    -0.116902730397E+04    0.52677E-04   -0.38233E-04  4767   0.206E-02    0.595E-02
RMM:   5    -0.116902728987E+04    0.14098E-04   -0.79781E-05  3568   0.130E-02    0.246E-02
RMM:   6    -0.116902729357E+04   -0.36984E-05   -0.30556E-05  3462   0.812E-03    0.136E-02
RMM:   7    -0.116902729530E+04   -0.17289E-05   -0.18185E-05  3311   0.615E-03    0.884E-03
RMM:   8    -0.116902729643E+04   -0.11268E-05   -0.12030E-05  3165   0.486E-03
  22 F= -.11690273E+04 E0= -.11690273E+04  d E =-.242929E-02  mag=    10.0000
       N       E                     dE             d eps       ncg     rms          rms(c)
DAV:   1    -0.116902242505E+04    0.48702E-02   -0.29560E+00  6344   0.201E+00    0.371E-01
RMM:   2    -0.116902910067E+04   -0.66756E-02   -0.74961E-02  6152   0.341E-01    0.267E-01
RMM:   3    -0.116902901814E+04    0.82524E-04   -0.35685E-03  6159   0.109E-01    0.175E-01
RMM:   4    -0.116902886963E+04    0.14851E-03   -0.11193E-03  6499   0.344E-02    0.970E-02
RMM:   5    -0.116902883169E+04    0.37938E-04   -0.25132E-04  4466   0.187E-02    0.343E-02
RMM:   6    -0.116902883767E+04   -0.59828E-05   -0.62336E-05  3583   0.114E-02    0.192E-02
RMM:   7    -0.116902884136E+04   -0.36844E-05   -0.40330E-05  3508   0.838E-03    0.125E-02
RMM:   8    -0.116902884353E+04   -0.21752E-05   -0.25431E-05  3367   0.690E-03
  23 F= -.11690288E+04 E0= -.11690288E+04  d E =-.397640E-02  mag=    10.0000
       N       E                     dE             d eps       ncg     rms          rms(c)
DAV:   1    -0.116902911960E+04   -0.27824E-03   -0.62043E-01  6464   0.924E-01    0.210E-01
RMM:   2    -0.116903048896E+04   -0.13694E-02   -0.16359E-02  6165   0.161E-01    0.183E-01
RMM:   3    -0.116903045454E+04    0.34418E-04   -0.78388E-04  5637   0.510E-02    0.120E-01
RMM:   4    -0.116903039361E+04    0.60932E-04   -0.29803E-04  4410   0.188E-02    0.684E-02
RMM:   5    -0.116903037759E+04    0.16019E-04   -0.68107E-05  3574   0.119E-02    0.362E-02
RMM:   6    -0.116903038024E+04   -0.26515E-05   -0.24810E-05  3449   0.740E-03    0.114E-02
RMM:   7    -0.116903038126E+04   -0.10173E-05   -0.13545E-05  3261   0.548E-03    0.943E-03
RMM:   8    -0.116903038201E+04   -0.74980E-06   -0.88164E-06  2993   0.426E-03
  24 F= -.11690304E+04 E0= -.11690304E+04  d E =-.153847E-02  mag=    10.0000
       N       E                     dE             d eps       ncg     rms          rms(c)
DAV:   1    -0.116903029369E+04    0.87564E-04   -0.13964E-01  6480   0.438E-01    0.100E-01
RMM:   2    -0.116903060517E+04   -0.31148E-03   -0.37161E-03  6162   0.766E-02    0.869E-02
RMM:   3    -0.116903059329E+04    0.11882E-04   -0.14065E-04  3633   0.234E-02    0.570E-02
RMM:   4    -0.116903057998E+04    0.13310E-04   -0.67117E-05  3511   0.102E-02    0.335E-02
RMM:   5    -0.116903057862E+04    0.13663E-05   -0.20382E-05  3390   0.691E-03    0.242E-02
RMM:   6    -0.116903057952E+04   -0.89956E-06   -0.99440E-06  3139   0.412E-03    0.598E-03
RMM:   7    -0.116903057990E+04   -0.38843E-06   -0.46896E-06  2559   0.375E-03    0.714E-03
RMM:   8    -0.116903058015E+04   -0.24644E-06   -0.29758E-06  1945   0.250E-03
  25 F= -.11690306E+04 E0= -.11690306E+04  d E =-.173662E-02  mag=    10.0000
       N       E                     dE             d eps       ncg     rms          rms(c)
DAV:   1    -0.116903063484E+04   -0.54940E-04   -0.29603E-01  6408   0.637E-01    0.171E-01
RMM:   2    -0.116903142901E+04   -0.79417E-03   -0.80780E-03  6138   0.115E-01    0.128E-01
RMM:   3    -0.116903143761E+04   -0.85982E-05   -0.33866E-04  4612   0.349E-02    0.772E-02
RMM:   4    -0.116903140363E+04    0.33975E-04   -0.12099E-04  3580   0.135E-02    0.398E-02
RMM:   5    -0.116903140194E+04    0.16908E-05   -0.37880E-05  3470   0.872E-03    0.288E-02
RMM:   6    -0.116903140333E+04   -0.13822E-05   -0.13990E-05  3346   0.566E-03    0.896E-03
RMM:   7    -0.116903140400E+04   -0.67451E-06   -0.72393E-06  2917   0.384E-03    0.734E-03
RMM:   8    -0.116903140442E+04   -0.41594E-06   -0.43824E-06  2475   0.337E-03
  26 F= -.11690314E+04 E0= -.11690314E+04  d E =-.824266E-03  mag=    10.0000
