       N       E                     dE             d eps       ncg     rms          rms(c)
DAV:   1    -0.116130914013E+04   -0.11613E+04   -0.33155E-05  3944   0.162E-02    0.182E-02
RMM:   2    -0.116130914489E+04   -0.47617E-05   -0.25589E-05  3363   0.834E-03    0.236E-02
RMM:   3    -0.116130914719E+04   -0.22970E-05   -0.13926E-05  3116   0.439E-03    0.706E-03
RMM:   4    -0.116130914972E+04   -0.25284E-05   -0.84141E-06  2959   0.508E-03    0.925E-03
RMM:   5    -0.116130915156E+04   -0.18390E-05   -0.64426E-06  2169   0.305E-03    0.650E-03
RMM:   6    -0.116130915231E+04   -0.75337E-06   -0.32879E-06  1906   0.321E-03    0.590E-03
RMM:   7    -0.116130915608E+04   -0.37701E-05   -0.42594E-06  2135   0.305E-03    0.851E-03
RMM:   8    -0.116130916144E+04   -0.53587E-05   -0.57445E-06  2129   0.312E-03
   1 F= -.11613092E+04 E0= -.11613092E+04  d E =-.116131E+04  mag=     8.0000
       N       E                     dE             d eps       ncg     rms          rms(c)
DAV:   1    -0.116131038581E+04   -0.12297E-02   -0.12970E+00  6384   0.130E+00    0.448E-01
RMM:   2    -0.116131392792E+04   -0.35421E-02   -0.34630E-02  6240   0.244E-01    0.333E-01
RMM:   3    -0.116131404372E+04   -0.11580E-03   -0.20612E-03  6306   0.853E-02    0.195E-01
RMM:   4    -0.116131381540E+04    0.22833E-03   -0.83713E-04  5583   0.331E-02    0.903E-02
RMM:   5    -0.116131378000E+04    0.35393E-04   -0.15198E-04  4121   0.199E-02    0.341E-02
RMM:   6    -0.116131378356E+04   -0.35527E-05   -0.41889E-05  3595   0.959E-03    0.200E-02
RMM:   7    -0.116131378549E+04   -0.19333E-05   -0.20687E-05  3490   0.705E-03    0.148E-02
RMM:   8    -0.116131378739E+04   -0.19024E-05   -0.13171E-05  3394   0.537E-03
   2 F= -.11613138E+04 E0= -.11613138E+04  d E =-.462595E-02  mag=     8.0000
       N       E                     dE             d eps       ncg     rms          rms(c)
DAV:   1    -0.116131526391E+04   -0.14784E-02   -0.35006E-01  6336   0.687E-01    0.170E-01
RMM:   2    -0.116131587460E+04   -0.61069E-03   -0.10106E-02  6175   0.132E-01    0.152E-01
RMM:   3    -0.116131582889E+04    0.45704E-04   -0.55743E-04  5295   0.462E-02    0.102E-01
RMM:   4    -0.116131575484E+04    0.74056E-04   -0.24684E-04  4320   0.186E-02    0.591E-02
RMM:   5    -0.116131573556E+04    0.19281E-04   -0.63440E-05  3621   0.123E-02    0.204E-02
RMM:   6    -0.116131573728E+04   -0.17256E-05   -0.21385E-05  3461   0.679E-03    0.154E-02
RMM:   7    -0.116131573832E+04   -0.10415E-05   -0.97471E-06  3282   0.494E-03    0.110E-02
RMM:   8    -0.116131573930E+04   -0.98030E-06   -0.62413E-06  3128   0.377E-03
   3 F= -.11613157E+04 E0= -.11613157E+04  d E =-.195191E-02  mag=     8.0000
       N       E                     dE             d eps       ncg     rms          rms(c)
DAV:   1    -0.116131668370E+04   -0.94538E-03   -0.45305E-01  6376   0.778E-01    0.179E-01
RMM:   2    -0.116131770125E+04   -0.10176E-02   -0.11504E-02  6441   0.136E-01    0.121E-01
RMM:   3    -0.116131768194E+04    0.19314E-04   -0.55445E-04  5035   0.444E-02    0.743E-02
RMM:   4    -0.116131763781E+04    0.44133E-04   -0.14559E-04  3685   0.167E-02    0.376E-02
RMM:   5    -0.116131763492E+04    0.28904E-05   -0.56753E-05  3528   0.110E-02    0.163E-02
RMM:   6    -0.116131763688E+04   -0.19600E-05   -0.18907E-05  3438   0.732E-03    0.117E-02
RMM:   7    -0.116131763811E+04   -0.12356E-05   -0.10980E-05  3243   0.473E-03    0.838E-03
RMM:   8    -0.116131763894E+04   -0.83201E-06   -0.63574E-06  3129   0.430E-03
   4 F= -.11613176E+04 E0= -.11613176E+04  d E =-.189964E-02  mag=     8.0000
       N       E                     dE             d eps       ncg     rms          rms(c)
DAV:   1    -0.116131812609E+04   -0.48798E-03   -0.68492E-01  6392   0.955E-01    0.201E-01
RMM:   2    -0.116131973756E+04   -0.16115E-02   -0.16975E-02  6388   0.163E-01    0.134E-01
RMM:   3    -0.116131973310E+04    0.44534E-05   -0.84253E-04  5485   0.561E-02    0.833E-02
RMM:   4    -0.116131969253E+04    0.40572E-04   -0.17797E-04  3752   0.185E-02    0.461E-02
RMM:   5    -0.116131969134E+04    0.11891E-05   -0.64291E-05  3541   0.122E-02    0.180E-02
RMM:   6    -0.116131969421E+04   -0.28668E-05   -0.23797E-05  3457   0.792E-03    0.111E-02
RMM:   7    -0.116131969573E+04   -0.15213E-05   -0.14337E-05  3299   0.558E-03    0.793E-03
RMM:   8    -0.116131969662E+04   -0.88767E-06   -0.86097E-06  3047   0.472E-03
   5 F= -.11613197E+04 E0= -.11613197E+04  d E =-.205768E-02  mag=     8.0000
       N       E                     dE             d eps       ncg     rms          rms(c)
DAV:   1    -0.116131997610E+04   -0.28037E-03   -0.66284E-01  6328   0.934E-01    0.185E-01
RMM:   2    -0.116132148557E+04   -0.15095E-02   -0.15918E-02  6453   0.157E-01    0.116E-01
RMM:   3    -0.116132147577E+04    0.98022E-05   -0.76151E-04  5292   0.521E-02    0.721E-02
RMM:   4    -0.116132143936E+04    0.36405E-04   -0.16030E-04  3682   0.180E-02    0.373E-02
RMM:   5    -0.116132144069E+04   -0.13317E-05   -0.60707E-05  3542   0.117E-02    0.170E-02
RMM:   6    -0.116132144324E+04   -0.25488E-05   -0.22526E-05  3448   0.790E-03    0.107E-02
RMM:   7    -0.116132144470E+04   -0.14613E-05   -0.13654E-05  3303   0.536E-03    0.742E-03
RMM:   8    -0.116132144553E+04   -0.82610E-06   -0.80435E-06  3103   0.474E-03
   6 F= -.11613214E+04 E0= -.11613214E+04  d E =-.174891E-02  mag=     8.0000
       N       E                     dE             d eps       ncg     rms          rms(c)
DAV:   1    -0.116132155088E+04   -0.10618E-03   -0.68616E-01  6320   0.946E-01    0.176E-01
RMM:   2    -0.116132309348E+04   -0.15426E-02   -0.16384E-02  6396   0.158E-01    0.106E-01
RMM:   3    -0.116132307996E+04    0.13521E-04   -0.79566E-04  5328   0.539E-02    0.669E-02
RMM:   4    -0.116132304488E+04    0.35072E-04   -0.16816E-04  3732   0.180E-02    0.347E-02
RMM:   5    -0.116132304750E+04   -0.26157E-05   -0.55165E-05  3529   0.115E-02    0.180E-02
RMM:   6    -0.116132305026E+04   -0.27558E-05   -0.22887E-05  3442   0.759E-03    0.103E-02
RMM:   7    -0.116132305179E+04   -0.15319E-05   -0.13734E-05  3303   0.564E-03    0.770E-03
RMM:   8    -0.116132305270E+04   -0.91414E-06   -0.86023E-06  3005   0.452E-03
   7 F= -.11613231E+04 E0= -.11613231E+04  d E =-.160717E-02  mag=     8.0000
       N       E                     dE             d eps       ncg     rms          rms(c)
DAV:   1    -0.116132329176E+04   -0.23997E-03   -0.51022E-01  6336   0.814E-01    0.149E-01
RMM:   2    -0.116132442814E+04   -0.11364E-02   -0.12130E-02  6346   0.135E-01    0.908E-02
RMM:   3    -0.116132441423E+04    0.13905E-04   -0.57553E-04  4818   0.463E-02    0.574E-02
RMM:   4    -0.116132438879E+04    0.25441E-04   -0.12750E-04  3601   0.158E-02    0.337E-02
RMM:   5    -0.116132439119E+04   -0.23975E-05   -0.40439E-05  3486   0.101E-02    0.187E-02
RMM:   6    -0.116132439350E+04   -0.23158E-05   -0.19603E-05  3408   0.669E-03    0.990E-03
RMM:   7    -0.116132439472E+04   -0.12130E-05   -0.11142E-05  3241   0.541E-03    0.774E-03
RMM:   8    -0.116132439549E+04   -0.77483E-06   -0.71305E-06  2753   0.390E-03
   8 F= -.11613244E+04 E0= -.11613244E+04  d E =-.134279E-02  mag=     8.0000
       N       E                     dE             d eps       ncg     rms          rms(c)
DAV:   1    -0.116132438604E+04    0.86818E-05   -0.62308E-01  6304   0.898E-01    0.161E-01
RMM:   2    -0.116132575396E+04   -0.13679E-02   -0.14644E-02  6320   0.149E-01    0.957E-02
RMM:   3    -0.116132574187E+04    0.12082E-04   -0.72677E-04  5157   0.526E-02    0.610E-02
RMM:   4    -0.116132571286E+04    0.29017E-04   -0.16118E-04  3693   0.173E-02    0.362E-02
RMM:   5    -0.116132571595E+04   -0.30906E-05   -0.44486E-05  3492   0.109E-02    0.189E-02
RMM:   6    -0.116132571873E+04   -0.27810E-05   -0.22861E-05  3422   0.706E-03    0.111E-02
RMM:   7    -0.116132572012E+04   -0.13916E-05   -0.12730E-05  3298   0.589E-03    0.763E-03
RMM:   8    -0.116132572105E+04   -0.92716E-06   -0.84027E-06  2867   0.405E-03
   9 F= -.11613257E+04 E0= -.11613257E+04  d E =-.132555E-02  mag=     8.0000
       N       E                     dE             d eps       ncg     rms          rms(c)
DAV:   1    -0.116132577169E+04   -0.51574E-04   -0.50682E-01  6304   0.809E-01    0.145E-01
RMM:   2    -0.116132688971E+04   -0.11180E-02   -0.11940E-02  6313   0.134E-01    0.867E-02
RMM:   3    -0.116132687696E+04    0.12742E-04   -0.57311E-04  4829   0.466E-02    0.552E-02
RMM:   4    -0.116132685321E+04    0.23755E-04   -0.12780E-04  3594   0.156E-02    0.348E-02
RMM:   5    -0.116132685608E+04   -0.28717E-05   -0.37663E-05  3472   0.996E-03    0.170E-02
RMM:   6    -0.116132685850E+04   -0.24220E-05   -0.19810E-05  3388   0.647E-03    0.104E-02
RMM:   7    -0.116132685971E+04   -0.12053E-05   -0.10910E-05  3199   0.549E-03    0.726E-03
RMM:   8    -0.116132686052E+04   -0.81254E-06   -0.70914E-06  2664   0.374E-03
  10 F= -.11613269E+04 E0= -.11613269E+04  d E =-.113947E-02  mag=     8.0000
       N       E                     dE             d eps       ncg     rms          rms(c)
DAV:   1    -0.116132637854E+04    0.48117E-03   -0.78484E-01  6288   0.101E+00    0.181E-01
RMM:   2    -0.116132810001E+04   -0.17215E-02   -0.18396E-02  6311   0.166E-01    0.108E-01
RMM:   3    -0.116132808713E+04    0.12882E-04   -0.92328E-04  5476   0.593E-02    0.684E-02
RMM:   4    -0.116132804985E+04    0.37279E-04   -0.20375E-04  3848   0.190E-02    0.399E-02
RMM:   5    -0.116132805240E+04   -0.25446E-05   -0.54682E-05  3522   0.119E-02    0.195E-02
RMM:   6    -0.116132805576E+04   -0.33646E-05   -0.26643E-05  3433   0.772E-03    0.112E-02
RMM:   7    -0.116132805746E+04   -0.17034E-05   -0.14715E-05  3331   0.619E-03    0.784E-03
RMM:   8    -0.116132805862E+04   -0.11509E-05   -0.97117E-06  3015   0.448E-03
  11 F= -.11613281E+04 E0= -.11613281E+04  d E =-.119810E-02  mag=     8.0000
       N       E                     dE             d eps       ncg     rms          rms(c)
DAV:   1    -0.116132718177E+04    0.87570E-03   -0.90478E-01  6272   0.108E+00    0.195E-01
RMM:   2    -0.116132919442E+04   -0.20126E-02   -0.21408E-02  6372   0.179E-01    0.117E-01
RMM:   3    -0.116132917651E+04    0.17906E-04   -0.10336E-03  5666   0.609E-02    0.744E-02
RMM:   4    -0.116132913418E+04    0.42337E-04   -0.22375E-04  3929   0.199E-02    0.412E-02
RMM:   5    -0.116132913697E+04   -0.27957E-05   -0.62021E-05  3534   0.123E-02    0.187E-02
RMM:   6    -0.116132914058E+04   -0.36114E-05   -0.27548E-05  3451   0.812E-03    0.106E-02
RMM:   7    -0.116132914244E+04   -0.18600E-05   -0.15972E-05  3342   0.615E-03    0.777E-03
RMM:   8    -0.116132914363E+04   -0.11867E-05   -0.10143E-05  3079   0.479E-03
  12 F= -.11613291E+04 E0= -.11613291E+04  d E =-.108501E-02  mag=     8.0000
