       N       E                     dE             d eps       ncg     rms          rms(c)
DAV:   1    -0.116018878022E+04   -0.11602E+04   -0.72744E-06  7448   0.627E-03    0.106E-02
RMM:   2    -0.116018878088E+04   -0.66194E-06   -0.50653E-06  5589   0.372E-03    0.145E-02
RMM:   3    -0.116018878120E+04   -0.31997E-06   -0.22840E-06  3880   0.245E-03    0.347E-03
RMM:   4    -0.116018878154E+04   -0.34025E-06   -0.13184E-06  3115   0.246E-03    0.338E-03
RMM:   5    -0.116018878178E+04   -0.24184E-06   -0.67437E-07  2346   0.206E-03    0.286E-03
RMM:   6    -0.116018878220E+04   -0.41799E-06   -0.68675E-07  2356   0.215E-03    0.262E-03
RMM:   7    -0.116018878265E+04   -0.45082E-06   -0.87640E-07  2681   0.212E-03    0.220E-03
RMM:   8    -0.116018878306E+04   -0.40489E-06   -0.81499E-07  2605   0.210E-03
   1 F= -.11601888E+04 E0= -.11601888E+04  d E =-.116019E+04  mag=    10.0000
       N       E                     dE             d eps       ncg     rms          rms(c)
DAV:   1    -0.116018991690E+04   -0.11342E-02   -0.78074E-01 12816   0.104E+00    0.289E-01
RMM:   2    -0.116019094063E+04   -0.10237E-02   -0.25362E-02 12298   0.208E-01    0.294E-01
RMM:   3    -0.116019073690E+04    0.20373E-03   -0.12973E-03 12702   0.625E-02    0.195E-01
RMM:   4    -0.116019046475E+04    0.27215E-03   -0.71910E-04 10767   0.297E-02    0.110E-01
RMM:   5    -0.116019037529E+04    0.89460E-04   -0.16945E-04  8237   0.194E-02    0.413E-02
RMM:   6    -0.116019037838E+04   -0.30906E-05   -0.47199E-05  7246   0.101E-02    0.250E-02
RMM:   7    -0.116019037919E+04   -0.81357E-06   -0.20817E-05  6998   0.713E-03    0.241E-02
RMM:   8    -0.116019038014E+04   -0.94838E-06   -0.11884E-05  6625   0.512E-03
   2 F= -.11601904E+04 E0= -.11601904E+04  d E =-.159708E-02  mag=    10.0000
       N       E                     dE             d eps       ncg     rms          rms(c)
DAV:   1    -0.116019184078E+04   -0.14616E-02   -0.21166E-01 12736   0.535E-01    0.161E-01
RMM:   2    -0.116019204023E+04   -0.19945E-03   -0.72376E-03 12256   0.112E-01    0.174E-01
RMM:   3    -0.116019196821E+04    0.72011E-04   -0.30019E-04  9303   0.331E-02    0.117E-01
RMM:   4    -0.116019187410E+04    0.94113E-04   -0.20878E-04  8092   0.172E-02    0.629E-02
RMM:   5    -0.116019185093E+04    0.23175E-04   -0.74356E-05  7305   0.119E-02    0.518E-02
RMM:   6    -0.116019185171E+04   -0.77963E-06   -0.24612E-05  6869   0.773E-03    0.189E-02
RMM:   7    -0.116019185206E+04   -0.35258E-06   -0.99041E-06  6036   0.457E-03    0.153E-02
RMM:   8    -0.116019185245E+04   -0.38801E-06   -0.53056E-06  5657   0.370E-03
   3 F= -.11601919E+04 E0= -.11601919E+04  d E =-.147231E-02  mag=    10.0000
