       N       E                     dE             d eps       ncg     rms          rms(c)
DAV:   1    -0.116035898407E+04   -0.11604E+04   -0.28174E-06  7288   0.369E-03    0.439E-03
RMM:   2    -0.116035898596E+04   -0.18933E-05   -0.27343E-06  3225   0.259E-03    0.524E-03
RMM:   3    -0.116035898655E+04   -0.59143E-06   -0.79963E-07  1533   0.173E-03    0.450E-03
RMM:   4    -0.116035898500E+04    0.15586E-05   -0.29432E-07  1565   0.178E-03    0.431E-03
RMM:   5    -0.116035898476E+04    0.23351E-06   -0.67507E-08  1074   0.168E-03    0.439E-03
RMM:   6    -0.116035898701E+04   -0.22454E-05   -0.52759E-07  1480   0.190E-03    0.422E-03
RMM:   7    -0.116035899405E+04   -0.70445E-05   -0.12276E-05  4361   0.426E-03    0.561E-03
RMM:   8    -0.116035899228E+04    0.17715E-05   -0.13838E-06  3226   0.252E-03
   1 F= -.11603590E+04 E0= -.11603590E+04  d E =-.116036E+04  mag=     8.0000
       N       E                     dE             d eps       ncg     rms          rms(c)
DAV:   1    -0.116035969778E+04   -0.70373E-03   -0.80605E-02 12224   0.296E-01    0.655E-02
RMM:   2    -0.116035986061E+04   -0.16283E-03   -0.18561E-03 12224   0.525E-02    0.437E-02
RMM:   3    -0.116035985901E+04    0.15978E-05   -0.96648E-05  6552   0.179E-02    0.277E-02
RMM:   4    -0.116035985508E+04    0.39347E-05   -0.32844E-05  6379   0.770E-03    0.157E-02
RMM:   5    -0.116035985731E+04   -0.22254E-05   -0.10806E-05  5692   0.449E-03    0.918E-03
RMM:   6    -0.116035985929E+04   -0.19806E-05   -0.39524E-06  4415   0.319E-03    0.674E-03
RMM:   7    -0.116035986105E+04   -0.17672E-05   -0.22759E-06  3029   0.248E-03    0.582E-03
RMM:   8    -0.116035986421E+04   -0.31549E-05   -0.30553E-06  3595   0.268E-03
   2 F= -.11603599E+04 E0= -.11603599E+04  d E =-.871928E-03  mag=     8.0000
       N       E                     dE             d eps       ncg     rms          rms(c)
DAV:   1    -0.116036021870E+04   -0.35765E-03   -0.12168E-02 12160   0.117E-01    0.312E-02
RMM:   2    -0.116036023757E+04   -0.18865E-04   -0.29536E-04  7893   0.225E-02    0.256E-02
RMM:   3    -0.116036023901E+04   -0.14465E-05   -0.28393E-05  6129   0.966E-03    0.152E-02
RMM:   4    -0.116036023891E+04    0.10434E-06   -0.10742E-05  5608   0.459E-03    0.124E-02
RMM:   5    -0.116036024045E+04   -0.15452E-05   -0.49078E-06  4711   0.335E-03    0.665E-03
RMM:   6    -0.116036024215E+04   -0.16961E-05   -0.24716E-06  3040   0.246E-03    0.547E-03
RMM:   7    -0.116036024343E+04   -0.12803E-05   -0.11742E-06  2531   0.219E-03    0.501E-03
RMM:   8    -0.116036024581E+04   -0.23786E-05   -0.23865E-06  2961   0.238E-03
   3 F= -.11603602E+04 E0= -.11603602E+04  d E =-.381602E-03  mag=     8.0000
       N       E                     dE             d eps       ncg     rms          rms(c)
DAV:   1    -0.116036047666E+04   -0.23323E-03   -0.47571E-03 11528   0.724E-02    0.169E-02
RMM:   2    -0.116036048647E+04   -0.98171E-05   -0.10319E-04  6337   0.131E-02    0.118E-02
RMM:   3    -0.116036048851E+04   -0.20364E-05   -0.11157E-05  5748   0.587E-03    0.816E-03
RMM:   4    -0.116036048978E+04   -0.12685E-05   -0.33680E-06  3727   0.289E-03    0.683E-03
RMM:   5    -0.116036049179E+04   -0.20130E-05   -0.24238E-06  3373   0.259E-03    0.525E-03
RMM:   6    -0.116036049343E+04   -0.16417E-05   -0.15603E-06  2418   0.212E-03    0.477E-03
RMM:   7    -0.116036049464E+04   -0.12071E-05   -0.83493E-07  2112   0.199E-03    0.458E-03
RMM:   8    -0.116036049737E+04   -0.27266E-05   -0.25725E-06  2908   0.240E-03
   4 F= -.11603605E+04 E0= -.11603605E+04  d E =-.251557E-03  mag=     8.0000
       N       E                     dE             d eps       ncg     rms          rms(c)
DAV:   1    -0.116036070685E+04   -0.21221E-03   -0.44031E-03 11472   0.695E-02    0.153E-02
RMM:   2    -0.116036071656E+04   -0.97061E-05   -0.93538E-05  6296   0.125E-02    0.108E-02
RMM:   3    -0.116036071857E+04   -0.20128E-05   -0.99021E-06  5614   0.555E-03    0.738E-03
RMM:   4    -0.116036071985E+04   -0.12806E-05   -0.28449E-06  3320   0.273E-03    0.629E-03
RMM:   5    -0.116036072184E+04   -0.19860E-05   -0.21244E-06  3075   0.250E-03    0.509E-03
RMM:   6    -0.116036072333E+04   -0.14895E-05   -0.14151E-06  2391   0.208E-03    0.469E-03
RMM:   7    -0.116036072452E+04   -0.11984E-05   -0.78737E-07  1955   0.196E-03    0.447E-03
RMM:   8    -0.116036072778E+04   -0.32566E-05   -0.33160E-06  3146   0.261E-03
   5 F= -.11603607E+04 E0= -.11603607E+04  d E =-.230413E-03  mag=     8.0000
       N       E                     dE             d eps       ncg     rms          rms(c)
DAV:   1    -0.116036133349E+04   -0.60897E-03   -0.46699E-02 12176   0.226E-01    0.461E-02
RMM:   2    -0.116036143400E+04   -0.10051E-03   -0.10280E-03 11013   0.394E-02    0.283E-02
RMM:   3    -0.116036143741E+04   -0.34059E-05   -0.57588E-05  6390   0.138E-02    0.185E-02
RMM:   4    -0.116036143781E+04   -0.39919E-06   -0.16562E-05  5971   0.594E-03    0.110E-02
RMM:   5    -0.116036143996E+04   -0.21490E-05   -0.63471E-06  4438   0.351E-03    0.664E-03
RMM:   6    -0.116036144161E+04   -0.16559E-05   -0.25854E-06  3196   0.269E-03    0.509E-03
RMM:   7    -0.116036144303E+04   -0.14149E-05   -0.15352E-06  2678   0.226E-03    0.469E-03
RMM:   8    -0.116036144576E+04   -0.27279E-05   -0.28757E-06  3187   0.252E-03
   6 F= -.11603614E+04 E0= -.11603614E+04  d E =-.717977E-03  mag=     8.0000
       N       E                     dE             d eps       ncg     rms          rms(c)
DAV:   1    -0.116036180016E+04   -0.35713E-03   -0.14063E-02 12160   0.124E-01    0.280E-02
RMM:   2    -0.116036182735E+04   -0.27189E-04   -0.30419E-04  7706   0.224E-02    0.194E-02
RMM:   3    -0.116036183026E+04   -0.29082E-05   -0.27855E-05  6189   0.967E-03    0.120E-02
RMM:   4    -0.116036183132E+04   -0.10627E-05   -0.88982E-06  5609   0.431E-03    0.935E-03
RMM:   5    -0.116036183318E+04   -0.18660E-05   -0.37264E-06  4296   0.306E-03    0.611E-03
RMM:   6    -0.116036183497E+04   -0.17854E-05   -0.20273E-06  2846   0.237E-03    0.506E-03
RMM:   7    -0.116036183624E+04   -0.12657E-05   -0.13533E-06  2695   0.220E-03    0.486E-03
RMM:   8    -0.116036183749E+04   -0.12564E-05   -0.97977E-07  2166   0.202E-03
   7 F= -.11603618E+04 E0= -.11603618E+04  d E =-.391734E-03  mag=     8.0000
       N       E                     dE             d eps       ncg     rms          rms(c)
DAV:   1    -0.116036257407E+04   -0.73784E-03   -0.71306E-02 12176   0.278E-01    0.578E-02
RMM:   2    -0.116036273007E+04   -0.15600E-03   -0.15764E-03 12045   0.480E-02    0.353E-02
RMM:   3    -0.116036273484E+04   -0.47691E-05   -0.84528E-05  6743   0.167E-02    0.226E-02
RMM:   4    -0.116036273472E+04    0.12174E-06   -0.22233E-05  6253   0.666E-03    0.138E-02
RMM:   5    -0.116036273725E+04   -0.25290E-05   -0.89361E-06  5081   0.400E-03    0.891E-03
RMM:   6    -0.116036273925E+04   -0.19959E-05   -0.35229E-06  4111   0.303E-03    0.589E-03
RMM:   7    -0.116036274087E+04   -0.16190E-05   -0.19570E-06  2902   0.239E-03    0.536E-03
RMM:   8    -0.116036274329E+04   -0.24287E-05   -0.22782E-06  3163   0.246E-03
   8 F= -.11603627E+04 E0= -.11603627E+04  d E =-.905802E-03  mag=     8.0000
       N       E                     dE             d eps       ncg     rms          rms(c)
DAV:   1    -0.116036339433E+04   -0.65347E-03   -0.52061E-02 12176   0.237E-01    0.495E-02
RMM:   2    -0.116036350812E+04   -0.11379E-03   -0.11522E-03 11351   0.413E-02    0.303E-02
RMM:   3    -0.116036351235E+04   -0.42305E-05   -0.63937E-05  6694   0.143E-02    0.195E-02
RMM:   4    -0.116036351308E+04   -0.72371E-06   -0.18192E-05  6212   0.620E-03    0.121E-02
RMM:   5    -0.116036351566E+04   -0.25861E-05   -0.72626E-06  4774   0.370E-03    0.846E-03
RMM:   6    -0.116036351775E+04   -0.20901E-05   -0.33446E-06  3764   0.293E-03    0.593E-03
RMM:   7    -0.116036351945E+04   -0.16975E-05   -0.18278E-06  2972   0.238E-03    0.533E-03
RMM:   8    -0.116036352240E+04   -0.29512E-05   -0.29731E-06  3340   0.256E-03
   9 F= -.11603635E+04 E0= -.11603635E+04  d E =-.779106E-03  mag=     8.0000
       N       E                     dE             d eps       ncg     rms          rms(c)
DAV:   1    -0.116036431644E+04   -0.79699E-03   -0.80127E-02 12176   0.295E-01    0.587E-02
RMM:   2    -0.116036448979E+04   -0.17335E-03   -0.17822E-03 12192   0.513E-02    0.362E-02
RMM:   3    -0.116036449443E+04   -0.46447E-05   -0.95427E-05  6984   0.174E-02    0.233E-02
RMM:   4    -0.116036449447E+04   -0.35696E-07   -0.25226E-05  6535   0.711E-03    0.145E-02
RMM:   5    -0.116036449747E+04   -0.30005E-05   -0.10210E-05  5562   0.424E-03    0.104E-02
RMM:   6    -0.116036449980E+04   -0.23251E-05   -0.43853E-06  4439   0.324E-03    0.651E-03
RMM:   7    -0.116036450176E+04   -0.19606E-05   -0.21815E-06  3240   0.252E-03    0.583E-03
RMM:   8    -0.116036450492E+04   -0.31664E-05   -0.33265E-06  3476   0.262E-03
  10 F= -.11603645E+04 E0= -.11603645E+04  d E =-.982523E-03  mag=     8.0000
