       N       E                     dE             d eps       ncg     rms          rms(c)
DAV:   1     0.117991424542E+05    0.11799E+05   -0.41773E+05  6168   0.130E+03
DAV:   2     0.610636291461E+03   -0.11189E+05   -0.99938E+04  6152   0.372E+02
DAV:   3    -0.137237877432E+04   -0.19830E+04   -0.19121E+04  6608   0.163E+02
DAV:   4    -0.150423703542E+04   -0.13186E+03   -0.12968E+03  8168   0.430E+01
DAV:   5    -0.151196368613E+04   -0.77267E+01   -0.76979E+01 10984   0.916E+00    0.180E+02
RMM:   6    -0.116741037666E+04    0.34455E+03   -0.15690E+03  6255   0.337E+01    0.952E+01
RMM:   7    -0.115480984075E+04    0.12601E+02   -0.60632E+01  6398   0.970E+00    0.561E+01
RMM:   8    -0.116119832839E+04   -0.63885E+01   -0.33706E+01  6273   0.651E+00    0.221E+01
RMM:   9    -0.116139686801E+04   -0.19854E+00   -0.57015E+00  6441   0.221E+00    0.920E+00
RMM:  10    -0.116250383063E+04   -0.11070E+01   -0.27058E+00  6458   0.133E+00    0.849E+00
RMM:  11    -0.116261386735E+04   -0.11004E+00   -0.74617E-01  7022   0.658E-01    0.579E+00
RMM:  12    -0.116371457754E+04   -0.11007E+01   -0.10572E+00  6203   0.853E-01    0.311E+00
RMM:  13    -0.116415357189E+04   -0.43899E+00   -0.41717E-01  6378   0.566E-01    0.206E+00
RMM:  14    -0.116424717275E+04   -0.93601E-01   -0.10732E-01  7311   0.275E-01    0.145E+00
RMM:  15    -0.116433436892E+04   -0.87196E-01   -0.94383E-02  6311   0.263E-01    0.770E-01
RMM:  16    -0.116435161285E+04   -0.17244E-01   -0.37987E-02  6649   0.173E-01    0.382E-01
RMM:  17    -0.116435444031E+04   -0.28275E-02   -0.10519E-02  7786   0.817E-02    0.219E-01
RMM:  18    -0.116435484025E+04   -0.39994E-03   -0.21573E-03  7036   0.354E-02    0.125E-01
RMM:  19    -0.116435497602E+04   -0.13576E-03   -0.78012E-04  6022   0.226E-02    0.580E-02
RMM:  20    -0.116435502049E+04   -0.44474E-04   -0.28167E-04  4769   0.140E-02
   1 F= -.11643550E+04 E0= -.11643549E+04  d E =-.116436E+04  mag=     2.0132
       N       E                     dE             d eps       ncg     rms          rms(c)
DAV:   1    -0.116442030667E+04   -0.65331E-01   -0.91485E+01  7216   0.108E+01    0.304E+00
RMM:   2    -0.116470506196E+04   -0.28476E+00   -0.34765E+00  6144   0.219E+00    0.265E+00
RMM:   3    -0.116469117411E+04    0.13888E-01   -0.17226E-01  6666   0.516E-01    0.173E+00
RMM:   4    -0.116468034612E+04    0.10828E-01   -0.57725E-02  6652   0.218E-01    0.100E+00
RMM:   5    -0.116467677277E+04    0.35734E-02   -0.27438E-02  6664   0.140E-01    0.295E-01
RMM:   6    -0.116467661846E+04    0.15431E-03   -0.29853E-03  7453   0.461E-02    0.225E-01
RMM:   7    -0.116467670754E+04   -0.89084E-04   -0.99698E-04  6980   0.226E-02    0.141E-01
RMM:   8    -0.116467700417E+04   -0.29663E-03   -0.92151E-04  6049   0.250E-02    0.105E-01
RMM:   9    -0.116467703493E+04   -0.30757E-04   -0.28757E-04  4554   0.133E-02
   2 F= -.11646770E+04 E0= -.11646619E+04  d E =-.322014E+00  mag=     2.4878
       N       E                     dE             d eps       ncg     rms          rms(c)
DAV:   1    -0.116464674958E+04    0.30255E-01   -0.23174E+01  6960   0.548E+00    0.231E+00
RMM:   2    -0.116471786716E+04   -0.71118E-01   -0.80878E-01  6144   0.106E+00    0.174E+00
RMM:   3    -0.116471365304E+04    0.42141E-02   -0.48527E-02  6226   0.245E-01    0.106E+00
RMM:   4    -0.116471797244E+04   -0.43194E-02   -0.39512E-02  6240   0.156E-01    0.523E-01
RMM:   5    -0.116472033110E+04   -0.23587E-02   -0.14574E-02  6695   0.950E-02    0.310E-01
RMM:   6    -0.116472087376E+04   -0.54266E-03   -0.28049E-03  7142   0.393E-02    0.226E-01
RMM:   7    -0.116472181681E+04   -0.94305E-03   -0.12330E-03  6326   0.290E-02    0.126E-01
RMM:   8    -0.116472238654E+04   -0.56973E-03   -0.70134E-04  5577   0.241E-02    0.640E-02
RMM:   9    -0.116472249170E+04   -0.10516E-03   -0.19760E-04  4259   0.121E-02    0.461E-02
RMM:  10    -0.116472257066E+04   -0.78958E-04   -0.11584E-04  3926   0.957E-03
   3 F= -.11647226E+04 E0= -.11647145E+04  d E =-.367550E+00  mag=     3.9123
       N       E                     dE             d eps       ncg     rms          rms(c)
DAV:   1    -0.116484240307E+04   -0.11991E+00   -0.37844E+01  6592   0.708E+00    0.197E+00
RMM:   2    -0.116490929930E+04   -0.66896E-01   -0.11475E+00  6144   0.131E+00    0.161E+00
RMM:   3    -0.116490102203E+04    0.82773E-02   -0.51453E-02  6344   0.298E-01    0.101E+00
RMM:   4    -0.116489604500E+04    0.49770E-02   -0.22319E-02  6825   0.141E-01    0.604E-01
RMM:   5    -0.116489394397E+04    0.21010E-02   -0.58129E-03  6659   0.697E-02    0.210E-01
RMM:   6    -0.116489400568E+04   -0.61710E-04   -0.87551E-04  6492   0.262E-02    0.135E-01
RMM:   7    -0.116489403292E+04   -0.27241E-04   -0.37717E-04  5211   0.176E-02    0.547E-02
RMM:   8    -0.116489404521E+04   -0.12292E-04   -0.14674E-04  4383   0.115E-02
   4 F= -.11648940E+04 E0= -.11648859E+04  d E =-.171475E+00  mag=     3.9712
       N       E                     dE             d eps       ncg     rms          rms(c)
DAV:   1    -0.116489696373E+04   -0.29308E-02   -0.16634E+00  6960   0.151E+00    0.416E-01
RMM:   2    -0.116489988802E+04   -0.29243E-02   -0.50639E-02  6144   0.276E-01    0.347E-01
RMM:   3    -0.116489956183E+04    0.32619E-03   -0.24310E-03  6329   0.639E-02    0.221E-01
RMM:   4    -0.116489936027E+04    0.20157E-03   -0.10392E-03  5766   0.307E-02    0.131E-01
RMM:   5    -0.116489926299E+04    0.97280E-04   -0.23949E-04  4481   0.157E-02    0.436E-02
RMM:   6    -0.116489926826E+04   -0.52765E-05   -0.44845E-05  3779   0.803E-03    0.275E-02
RMM:   7    -0.116489927142E+04   -0.31559E-05   -0.25024E-05  3606   0.560E-03    0.163E-02
RMM:   8    -0.116489927209E+04   -0.67195E-06   -0.11832E-05  3497   0.421E-03
   5 F= -.11648993E+04 E0= -.11648910E+04  d E =-.176701E+00  mag=     3.9780
       N       E                     dE             d eps       ncg     rms          rms(c)
DAV:   1    -0.116499069064E+04   -0.91419E-01   -0.11231E+01  6512   0.387E+00    0.116E+00
RMM:   2    -0.116501806940E+04   -0.27379E-01   -0.39740E-01  6144   0.788E-01    0.128E+00
RMM:   3    -0.116501401611E+04    0.40533E-02   -0.16741E-02  6638   0.160E-01    0.920E-01
RMM:   4    -0.116501168173E+04    0.23344E-02   -0.99327E-03  6534   0.966E-02    0.546E-01
RMM:   5    -0.116500984699E+04    0.18347E-02   -0.37901E-03  6257   0.606E-02    0.132E-01
RMM:   6    -0.116500977952E+04    0.67470E-04   -0.32220E-04  4863   0.170E-02    0.868E-02
RMM:   7    -0.116500975600E+04    0.23512E-04   -0.12338E-04  4071   0.117E-02    0.510E-02
RMM:   8    -0.116500975932E+04   -0.33176E-05   -0.83861E-05  3816   0.101E-02
   6 F= -.11650098E+04 E0= -.11650019E+04  d E =-.110487E+00  mag=     3.9787
       N       E                     dE             d eps       ncg     rms          rms(c)
DAV:   1    -0.116502477569E+04   -0.15020E-01   -0.61919E+00  6528   0.287E+00    0.838E-01
RMM:   2    -0.116503979123E+04   -0.15016E-01   -0.21581E-01  6144   0.582E-01    0.917E-01
RMM:   3    -0.116503757237E+04    0.22189E-02   -0.92737E-03  6629   0.118E-01    0.653E-01
RMM:   4    -0.116503628390E+04    0.12885E-02   -0.52922E-03  6440   0.702E-02    0.394E-01
RMM:   5    -0.116503528847E+04    0.99543E-03   -0.20753E-03  6103   0.450E-02    0.935E-02
RMM:   6    -0.116503525480E+04    0.33675E-04   -0.14657E-04  4163   0.126E-02    0.639E-02
RMM:   7    -0.116503524546E+04    0.93388E-05   -0.67685E-05  3829   0.950E-03    0.363E-02
RMM:   8    -0.116503524921E+04   -0.37441E-05   -0.55086E-05  3659   0.799E-03
   7 F= -.11650352E+04 E0= -.11650278E+04  d E =-.135977E+00  mag=     3.9793
       N       E                     dE             d eps       ncg     rms          rms(c)
DAV:   1    -0.116505933177E+04   -0.24086E-01   -0.52029E+00  6528   0.267E+00    0.588E-01
RMM:   2    -0.116507068478E+04   -0.11353E-01   -0.14712E-01  6144   0.481E-01    0.547E-01
RMM:   3    -0.116506993085E+04    0.75393E-03   -0.61045E-03  6581   0.105E-01    0.361E-01
RMM:   4    -0.116506943612E+04    0.49473E-03   -0.25205E-03  6416   0.471E-02    0.236E-01
RMM:   5    -0.116506906975E+04    0.36637E-03   -0.91565E-04  5900   0.284E-02    0.466E-02
RMM:   6    -0.116506906137E+04    0.83765E-05   -0.76936E-05  3921   0.973E-03    0.348E-02
RMM:   7    -0.116506905962E+04    0.17511E-05   -0.38215E-05  3599   0.729E-03    0.187E-02
RMM:   8    -0.116506906198E+04   -0.23576E-05   -0.27435E-05  3505   0.587E-03
   8 F= -.11650691E+04 E0= -.11650621E+04  d E =-.338128E-01  mag=     3.9791
       N       E                     dE             d eps       ncg     rms          rms(c)
DAV:   1    -0.116506704741E+04    0.20122E-02   -0.10286E+01  6440   0.375E+00    0.829E-01
RMM:   2    -0.116508965871E+04   -0.22611E-01   -0.29178E-01  6144   0.677E-01    0.768E-01
RMM:   3    -0.116508815798E+04    0.15007E-02   -0.12100E-02  6627   0.148E-01    0.507E-01
RMM:   4    -0.116508718374E+04    0.97424E-03   -0.48239E-03  6713   0.657E-02    0.334E-01
RMM:   5    -0.116508647269E+04    0.71105E-03   -0.19043E-03  6394   0.403E-02    0.669E-02
RMM:   6    -0.116508645500E+04    0.17685E-04   -0.16576E-04  4319   0.136E-02    0.496E-02
RMM:   7    -0.116508645238E+04    0.26279E-05   -0.84063E-05  3807   0.102E-02    0.274E-02
RMM:   8    -0.116508645707E+04   -0.46945E-05   -0.59414E-05  3621   0.803E-03
   9 F= -.11650865E+04 E0= -.11650802E+04  d E =-.512079E-01  mag=     3.9797
       N       E                     dE             d eps       ncg     rms          rms(c)
DAV:   1    -0.116509478830E+04   -0.83359E-02   -0.95827E+00  6448   0.363E+00    0.712E-01
RMM:   2    -0.116511619373E+04   -0.21405E-01   -0.25703E-01  6144   0.618E-01    0.580E-01
RMM:   3    -0.116511528695E+04    0.90679E-03   -0.10658E-02  6431   0.145E-01    0.371E-01
RMM:   4    -0.116511480591E+04    0.48103E-03   -0.35699E-03  6982   0.549E-02    0.242E-01
RMM:   5    -0.116511439504E+04    0.41088E-03   -0.11940E-03  6553   0.294E-02    0.511E-02
RMM:   6    -0.116511439428E+04    0.75562E-06   -0.13287E-04  4165   0.117E-02    0.347E-02
RMM:   7    -0.116511439808E+04   -0.38029E-05   -0.67571E-05  3686   0.891E-03    0.211E-02
RMM:   8    -0.116511440218E+04   -0.41008E-05   -0.43474E-05  3583   0.679E-03
  10 F= -.11651144E+04 E0= -.11651082E+04  d E =-.279451E-01  mag=     3.9798
       N       E                     dE             d eps       ncg     rms          rms(c)
DAV:   1    -0.116509790143E+04    0.16497E-01   -0.14129E+01  6392   0.441E+00    0.866E-01
RMM:   2    -0.116512932351E+04   -0.31422E-01   -0.37715E-01  6144   0.752E-01    0.703E-01
RMM:   3    -0.116512800267E+04    0.13208E-02   -0.15730E-02  6450   0.176E-01    0.449E-01
RMM:   4    -0.116512730421E+04    0.69846E-03   -0.52213E-03  7104   0.667E-02    0.292E-01
RMM:   5    -0.116512670430E+04    0.59990E-03   -0.17337E-03  6814   0.356E-02    0.610E-02
RMM:   6    -0.116512670722E+04   -0.29175E-05   -0.21503E-04  4530   0.140E-02    0.415E-02
RMM:   7    -0.116512671363E+04   -0.64048E-05   -0.10581E-04  3846   0.103E-02    0.249E-02
RMM:   8    -0.116512671965E+04   -0.60273E-05   -0.64162E-05  3665   0.795E-03
  11 F= -.11651267E+04 E0= -.11651207E+04  d E =-.402626E-01  mag=     3.9808
       N       E                     dE             d eps       ncg     rms          rms(c)
DAV:   1    -0.116512281974E+04    0.38939E-02   -0.13451E+01  6320   0.419E+00    0.823E-01
RMM:   2    -0.116515319340E+04   -0.30374E-01   -0.33814E-01  6149   0.693E-01    0.600E-01
RMM:   3    -0.116515240017E+04    0.79323E-03   -0.14152E-02  6259   0.170E-01    0.391E-01
RMM:   4    -0.116515170737E+04    0.69279E-03   -0.46474E-03  7218   0.639E-02    0.206E-01
RMM:   5    -0.116515151787E+04    0.18950E-03   -0.12432E-03  6935   0.306E-02    0.496E-02
RMM:   6    -0.116515152083E+04   -0.29563E-05   -0.17657E-04  4192   0.122E-02    0.333E-02
RMM:   7    -0.116515152713E+04   -0.63031E-05   -0.98844E-05  3834   0.952E-03    0.169E-02
RMM:   8    -0.116515153128E+04   -0.41428E-05   -0.57779E-05  3667   0.765E-03
  12 F= -.11651515E+04 E0= -.11651455E+04  d E =-.248116E-01  mag=     3.9810
       N       E                     dE             d eps       ncg     rms          rms(c)
DAV:   1    -0.116513285440E+04    0.18673E-01   -0.12636E+01  6336   0.406E+00    0.796E-01
RMM:   2    -0.116516128620E+04   -0.28432E-01   -0.31669E-01  6150   0.670E-01    0.579E-01
RMM:   3    -0.116516054595E+04    0.74025E-03   -0.13305E-02  6255   0.165E-01    0.375E-01
RMM:   4    -0.116515989483E+04    0.65112E-03   -0.43495E-03  7277   0.617E-02    0.199E-01
RMM:   5    -0.116515971909E+04    0.17574E-03   -0.11638E-03  6915   0.295E-02    0.474E-02
RMM:   6    -0.116515972345E+04   -0.43596E-05   -0.16955E-04  4193   0.119E-02    0.317E-02
RMM:   7    -0.116515972955E+04   -0.60990E-05   -0.93254E-05  3849   0.937E-03    0.164E-02
RMM:   8    -0.116515973350E+04   -0.39527E-05   -0.55954E-05  3697   0.755E-03
  13 F= -.11651597E+04 E0= -.11651538E+04  d E =-.330139E-01  mag=     3.9811
       N       E                     dE             d eps       ncg     rms          rms(c)
DAV:   1    -0.116514698050E+04    0.12749E-01   -0.14281E+01  6320   0.431E+00    0.801E-01
RMM:   2    -0.116517726913E+04   -0.30289E-01   -0.35562E-01  6145   0.716E-01    0.617E-01
RMM:   3    -0.116517602450E+04    0.12446E-02   -0.14725E-02  6294   0.170E-01    0.395E-01
RMM:   4    -0.116517521252E+04    0.81198E-03   -0.53800E-03  7163   0.669E-02    0.238E-01
RMM:   5    -0.116517476513E+04    0.44739E-03   -0.15442E-03  6885   0.339E-02    0.615E-02
RMM:   6    -0.116517477141E+04   -0.62809E-05   -0.19059E-04  4463   0.130E-02    0.437E-02
RMM:   7    -0.116517477820E+04   -0.67866E-05   -0.10568E-04  3894   0.104E-02    0.240E-02
RMM:   8    -0.116517478414E+04   -0.59394E-05   -0.66699E-05  3703   0.801E-03
  14 F= -.11651748E+04 E0= -.11651691E+04  d E =-.150506E-01  mag=     3.9807
       N       E                     dE             d eps       ncg     rms          rms(c)
DAV:   1    -0.116517425735E+04    0.52085E-03   -0.50824E-01  6784   0.814E-01    0.151E-01
RMM:   2    -0.116517534885E+04   -0.10915E-02   -0.12810E-02  6148   0.135E-01    0.117E-01
RMM:   3    -0.116517529658E+04    0.52274E-04   -0.53421E-04  5206   0.323E-02    0.762E-02
RMM:   4    -0.116517526686E+04    0.29719E-04   -0.20354E-04  4053   0.139E-02    0.422E-02
RMM:   5    -0.116517525428E+04    0.12576E-04   -0.60687E-05  3641   0.803E-03    0.129E-02
RMM:   6    -0.116517525610E+04   -0.18164E-05   -0.20892E-05  3438   0.488E-03    0.886E-03
RMM:   7    -0.116517525717E+04   -0.10763E-05   -0.12249E-05  3245   0.371E-03    0.631E-03
RMM:   8    -0.116517525785E+04   -0.67758E-06   -0.73991E-06  2976   0.310E-03
  15 F= -.11651753E+04 E0= -.11651697E+04  d E =-.155243E-01  mag=     3.9806
       N       E                     dE             d eps       ncg     rms          rms(c)
DAV:   1    -0.116516252357E+04    0.12734E-01   -0.11886E+01  6360   0.399E+00    0.768E-01
RMM:   2    -0.116518912274E+04   -0.26599E-01   -0.29841E-01  6146   0.660E-01    0.552E-01
RMM:   3    -0.116518825186E+04    0.87088E-03   -0.12079E-02  6191   0.159E-01    0.356E-01
RMM:   4    -0.116518771159E+04    0.54027E-03   -0.42402E-03  7193   0.596E-02    0.186E-01
RMM:   5    -0.116518748563E+04    0.22596E-03   -0.10981E-03  6984   0.278E-02    0.431E-02
RMM:   6    -0.116518748906E+04   -0.34210E-05   -0.15842E-04  4124   0.116E-02    0.297E-02
RMM:   7    -0.116518749352E+04   -0.44616E-05   -0.78962E-05  3771   0.914E-03    0.171E-02
RMM:   8    -0.116518749762E+04   -0.41058E-05   -0.57336E-05  3676   0.754E-03
  16 F= -.11651875E+04 E0= -.11651818E+04  d E =-.122398E-01  mag=     3.9808
       N       E                     dE             d eps       ncg     rms          rms(c)
DAV:   1    -0.116518502600E+04    0.24675E-02   -0.17127E+00  6472   0.151E+00    0.292E-01
RMM:   2    -0.116518889782E+04   -0.38718E-02   -0.43378E-02  6146   0.250E-01    0.210E-01
RMM:   3    -0.116518876205E+04    0.13577E-03   -0.18123E-03  6151   0.606E-02    0.136E-01
RMM:   4    -0.116518868104E+04    0.81007E-04   -0.62357E-04  6026   0.232E-02    0.701E-02
RMM:   5    -0.116518864945E+04    0.31587E-04   -0.14753E-04  4094   0.123E-02    0.183E-02
RMM:   6    -0.116518865248E+04   -0.30307E-05   -0.37310E-05  3552   0.733E-03    0.105E-02
RMM:   7    -0.116518865472E+04   -0.22397E-05   -0.30148E-05  3375   0.567E-03    0.811E-03
RMM:   8    -0.116518865583E+04   -0.11077E-05   -0.14762E-05  3236   0.438E-03
  17 F= -.11651887E+04 E0= -.11651830E+04  d E =-.133980E-01  mag=     3.9810
       N       E                     dE             d eps       ncg     rms          rms(c)
DAV:   1    -0.116518160172E+04    0.70530E-02   -0.64032E+00  6344   0.293E+00    0.565E-01
RMM:   2    -0.116519557452E+04   -0.13973E-01   -0.16395E-01  6144   0.493E-01    0.436E-01
RMM:   3    -0.116519499014E+04    0.58438E-03   -0.66655E-03  6298   0.115E-01    0.285E-01
RMM:   4    -0.116519457408E+04    0.41606E-03   -0.25071E-03  6876   0.456E-02    0.150E-01
RMM:   5    -0.116519440157E+04    0.17251E-03   -0.62402E-04  5957   0.220E-02    0.385E-02
RMM:   6    -0.116519440300E+04   -0.14378E-05   -0.84670E-05  3760   0.957E-03    0.262E-02
RMM:   7    -0.116519440591E+04   -0.29035E-05   -0.55450E-05  3658   0.748E-03    0.145E-02
RMM:   8    -0.116519440909E+04   -0.31797E-05   -0.36500E-05  3586   0.620E-03
  18 F= -.11651944E+04 E0= -.11651883E+04  d E =-.575326E-02  mag=     3.9813
       N       E                     dE             d eps       ncg     rms          rms(c)
DAV:   1    -0.116519441217E+04   -0.62631E-05   -0.82120E-04  5848   0.334E-02    0.687E-03
RMM:   2    -0.116519441527E+04   -0.30941E-05   -0.34968E-05  3401   0.711E-03    0.642E-03
RMM:   3    -0.116519441606E+04   -0.79598E-06   -0.93404E-06  2909   0.349E-03    0.393E-03
RMM:   4    -0.116519441639E+04   -0.32788E-06   -0.44876E-06  1914   0.257E-03    0.327E-03
RMM:   5    -0.116519441655E+04   -0.16343E-06   -0.25515E-06  1345   0.231E-03    0.852E-04
RMM:   6    -0.116519441667E+04   -0.11793E-06   -0.13464E-06   915   0.209E-03    0.533E-04
RMM:   7    -0.116519441673E+04   -0.58528E-07   -0.72405E-07   740   0.199E-03    0.344E-04
RMM:   8    -0.116519441676E+04   -0.28624E-07   -0.38972E-07   645   0.194E-03
  19 F= -.11651944E+04 E0= -.11651883E+04  d E =-.576093E-02  mag=     3.9814
       N       E                     dE             d eps       ncg     rms          rms(c)
DAV:   1    -0.116518988237E+04    0.45344E-02   -0.41785E+00  6368   0.237E+00    0.430E-01
RMM:   2    -0.116519904942E+04   -0.91671E-02   -0.10484E-01  6144   0.394E-01    0.338E-01
RMM:   3    -0.116519874563E+04    0.30380E-03   -0.41878E-03  6152   0.920E-02    0.218E-01
RMM:   4    -0.116519854410E+04    0.20152E-03   -0.14593E-03  6341   0.350E-02    0.136E-01
RMM:   5    -0.116519841241E+04    0.13170E-03   -0.42388E-04  5508   0.186E-02    0.268E-02
RMM:   6    -0.116519841388E+04   -0.14750E-05   -0.47970E-05  3598   0.831E-03    0.190E-02
RMM:   7    -0.116519841657E+04   -0.26920E-05   -0.40471E-05  3539   0.642E-03    0.116E-02
RMM:   8    -0.116519841839E+04   -0.18189E-05   -0.24504E-05  3440   0.523E-03
  20 F= -.11651984E+04 E0= -.11651920E+04  d E =-.400163E-02  mag=     3.9813
       N       E                     dE             d eps       ncg     rms          rms(c)
DAV:   1    -0.116519820872E+04    0.20786E-03   -0.16710E-01  6440   0.474E-01    0.856E-02
RMM:   2    -0.116519858300E+04   -0.37428E-03   -0.42723E-03  6109   0.789E-02    0.679E-02
RMM:   3    -0.116519856529E+04    0.17713E-04   -0.14447E-04  3703   0.187E-02    0.444E-02
RMM:   4    -0.116519855808E+04    0.72094E-05   -0.65612E-05  3538   0.875E-03    0.247E-02
RMM:   5    -0.116519855519E+04    0.28925E-05   -0.23435E-05  3416   0.517E-03    0.574E-03
RMM:   6    -0.116519855598E+04   -0.79309E-06   -0.86604E-06  3068   0.337E-03    0.422E-03
RMM:   7    -0.116519855636E+04   -0.38324E-06   -0.43037E-06  2241   0.265E-03    0.267E-03
RMM:   8    -0.116519855660E+04   -0.23944E-06   -0.24622E-06  1736   0.235E-03
  21 F= -.11651986E+04 E0= -.11651921E+04  d E =-.413985E-02  mag=     3.9812
       N       E                     dE             d eps       ncg     rms          rms(c)
DAV:   1    -0.116519374883E+04    0.48075E-02   -0.37614E+00  6400   0.224E+00    0.414E-01
RMM:   2    -0.116520198446E+04   -0.82356E-02   -0.95053E-02  6144   0.376E-01    0.347E-01
RMM:   3    -0.116520169538E+04    0.28908E-03   -0.38029E-03  6184   0.870E-02    0.231E-01
RMM:   4    -0.116520148246E+04    0.21293E-03   -0.13502E-03  6304   0.334E-02    0.134E-01
RMM:   5    -0.116520135544E+04    0.12702E-03   -0.40746E-04  5418   0.181E-02    0.269E-02
RMM:   6    -0.116520135633E+04   -0.89116E-06   -0.47142E-05  3614   0.809E-03    0.188E-02
RMM:   7    -0.116520135802E+04   -0.16973E-05   -0.34371E-05  3519   0.603E-03    0.110E-02
RMM:   8    -0.116520135991E+04   -0.18826E-05   -0.22988E-05  3428   0.509E-03
  22 F= -.11652014E+04 E0= -.11651950E+04  d E =-.280330E-02  mag=     3.9811
       N       E                     dE             d eps       ncg     rms          rms(c)
DAV:   1    -0.116520136133E+04   -0.33057E-05   -0.15788E-05  3672   0.521E-03    0.315E-03
RMM:   2    -0.116520136200E+04   -0.66962E-06   -0.69799E-06  2532   0.333E-03    0.168E-03
RMM:   3    -0.116520136236E+04   -0.35953E-06   -0.33497E-06  1862   0.230E-03    0.148E-03
RMM:   4    -0.116520136249E+04   -0.13204E-06   -0.15048E-06  1189   0.213E-03    0.579E-04
RMM:   5    -0.116520136255E+04   -0.56083E-07   -0.55580E-07   678   0.194E-03    0.241E-04
RMM:   6    -0.116520136257E+04   -0.21988E-07   -0.27564E-07   582   0.191E-03    0.136E-04
RMM:   7    -0.116520136258E+04   -0.80618E-08   -0.13449E-07   526   0.189E-03    0.662E-05
RMM:   8    -0.116520136258E+04   -0.52823E-08   -0.82033E-08   495   0.188E-03
  23 F= -.11652014E+04 E0= -.11651950E+04  d E =-.280598E-02  mag=     3.9811
       N       E                     dE             d eps       ncg     rms          rms(c)
DAV:   1    -0.116519975340E+04    0.16092E-02   -0.14430E+00  6416   0.141E+00    0.277E-01
RMM:   2    -0.116520291541E+04   -0.31620E-02   -0.38200E-02  6144   0.240E-01    0.234E-01
RMM:   3    -0.116520275110E+04    0.16431E-03   -0.15494E-03  6156   0.553E-02    0.152E-01
RMM:   4    -0.116520264806E+04    0.10305E-03   -0.57700E-04  5401   0.227E-02    0.930E-02
RMM:   5    -0.116520258271E+04    0.65348E-04   -0.15062E-04  4110   0.136E-02    0.211E-02
RMM:   6    -0.116520258677E+04   -0.40626E-05   -0.37204E-05  3537   0.722E-03    0.138E-02
RMM:   7    -0.116520258780E+04   -0.10317E-05   -0.17941E-05  3428   0.517E-03    0.105E-02
RMM:   8    -0.116520258873E+04   -0.92284E-06   -0.11694E-05  3196   0.381E-03
  24 F= -.11652026E+04 E0= -.11651964E+04  d E =-.122614E-02  mag=     3.9810
       N       E                     dE             d eps       ncg     rms          rms(c)
DAV:   1    -0.116520256605E+04    0.21750E-04   -0.24411E-02  6432   0.183E-01    0.365E-02
RMM:   2    -0.116520261805E+04   -0.52001E-04   -0.63513E-04  5685   0.316E-02    0.304E-02
RMM:   3    -0.116520261527E+04    0.27874E-05   -0.20317E-05  3344   0.744E-03    0.196E-02
RMM:   4    -0.116520261353E+04    0.17335E-05   -0.82350E-06  3037   0.349E-03    0.115E-02
RMM:   5    -0.116520261258E+04    0.95680E-06   -0.73370E-07  1530   0.196E-03    0.193E-03
RMM:   6    -0.116520261261E+04   -0.31941E-07   -0.29465E-07   703   0.182E-03    0.117E-03
RMM:   7    -0.116520261261E+04   -0.22701E-08   -0.14443E-08   491   0.173E-03    0.649E-04
RMM:   8    -0.116520261261E+04   -0.31141E-08   -0.37425E-09   461   0.171E-03
  25 F= -.11652026E+04 E0= -.11651964E+04  d E =-.125003E-02  mag=     3.9810
       N       E                     dE             d eps       ncg     rms          rms(c)
DAV:   1    -0.116520219931E+04    0.41330E-03   -0.51112E-01  6432   0.842E-01    0.170E-01
RMM:   2    -0.116520332835E+04   -0.11290E-02   -0.13770E-02  6144   0.146E-01    0.144E-01
RMM:   3    -0.116520326963E+04    0.58716E-04   -0.49272E-04  4997   0.327E-02    0.964E-02
RMM:   4    -0.116520323119E+04    0.38436E-04   -0.18155E-04  3808   0.145E-02    0.523E-02
RMM:   5    -0.116520321261E+04    0.18590E-04   -0.57739E-05  3635   0.842E-03    0.110E-02
RMM:   6    -0.116520321373E+04   -0.11272E-05   -0.14764E-05  3387   0.462E-03    0.775E-03
RMM:   7    -0.116520321430E+04   -0.57046E-06   -0.70294E-06  2975   0.313E-03    0.516E-03
RMM:   8    -0.116520321467E+04   -0.36415E-06   -0.37208E-06  2521   0.271E-03
  26 F= -.11652032E+04 E0= -.11651971E+04  d E =-.602054E-03  mag=     3.9810
       N       E                     dE             d eps       ncg     rms          rms(c)
DAV:   1    -0.116520321414E+04    0.16170E-06   -0.52943E-04  6064   0.272E-02    0.573E-03
RMM:   2    -0.116520321539E+04   -0.12489E-05   -0.15592E-05  3146   0.546E-03    0.515E-03
RMM:   3    -0.116520321551E+04   -0.12065E-06   -0.10605E-06  1143   0.213E-03    0.338E-03
RMM:   4    -0.116520321548E+04    0.33688E-07   -0.29230E-08   443   0.179E-03    0.249E-03
RMM:   5    -0.116520321543E+04    0.47119E-07   -0.19059E-08   387   0.184E-03    0.460E-04
RMM:   6    -0.116520321542E+04    0.49040E-08   -0.39268E-09   331   0.184E-03    0.258E-04
RMM:   7    -0.116520321542E+04    0.36380E-09    0.00000E+00   288   0.184E-03    0.175E-04
RMM:   8    -0.116520321542E+04    0.10768E-08   -0.52644E-09   273   0.184E-03
  27 F= -.11652032E+04 E0= -.11651971E+04  d E =-.602811E-03  mag=     3.9810
       N       E                     dE             d eps       ncg     rms          rms(c)
DAV:   1    -0.116520279332E+04    0.42210E-03   -0.43144E-01  6432   0.775E-01    0.159E-01
RMM:   2    -0.116520372543E+04   -0.93211E-03   -0.11461E-02  6144   0.132E-01    0.124E-01
RMM:   3    -0.116520366800E+04    0.57428E-04   -0.42524E-04  4883   0.306E-02    0.804E-02
RMM:   4    -0.116520363362E+04    0.34384E-04   -0.16270E-04  3734   0.137E-02    0.448E-02
RMM:   5    -0.116520362132E+04    0.12296E-04   -0.54064E-05  3558   0.808E-03    0.114E-02
RMM:   6    -0.116520362262E+04   -0.12929E-05   -0.15323E-05  3395   0.462E-03    0.839E-03
RMM:   7    -0.116520362334E+04   -0.72320E-06   -0.76113E-06  3002   0.324E-03    0.548E-03
RMM:   8    -0.116520362384E+04   -0.49718E-06   -0.42195E-06  2608   0.278E-03
  28 F= -.11652036E+04 E0= -.11651975E+04  d E =-.408412E-03  mag=     3.9809
