       N       E                     dE             d eps       ncg     rms          rms(c)
DAV:   1    -0.116452105180E+04   -0.11645E+04   -0.38673E-06  3728   0.309E-03    0.476E-03
RMM:   2    -0.116452105171E+04    0.84910E-07   -0.14849E-06  1789   0.219E-03    0.396E-03
RMM:   3    -0.116452105165E+04    0.57800E-07   -0.18096E-07  1087   0.180E-03    0.100E-03
RMM:   4    -0.116452105165E+04    0.25757E-08   -0.37224E-08   561   0.178E-03    0.442E-04
RMM:   5    -0.116452105165E+04   -0.21537E-08   -0.22915E-09   445   0.177E-03    0.277E-04
RMM:   6    -0.116452105166E+04   -0.49331E-08   -0.75594E-09   398   0.177E-03    0.168E-04
RMM:   7    -0.116452105166E+04   -0.29395E-08   -0.86411E-09   366   0.178E-03    0.106E-04
RMM:   8    -0.116452105166E+04    0.48021E-09    0.00000E+00   339   0.178E-03
   1 F= -.11645211E+04 E0= -.11645187E+04  d E =-.116452E+04  mag=     1.9657
       N       E                     dE             d eps       ncg     rms          rms(c)
DAV:   1    -0.116452237315E+04   -0.13215E-02   -0.15764E+00  6368   0.143E+00    0.364E-01
RMM:   2    -0.116452564182E+04   -0.32687E-02   -0.48873E-02  6144   0.280E-01    0.392E-01
RMM:   3    -0.116452538010E+04    0.26171E-03   -0.21610E-03  6478   0.575E-02    0.284E-01
RMM:   4    -0.116452503732E+04    0.34278E-03   -0.95446E-04  5577   0.309E-02    0.149E-01
RMM:   5    -0.116452495263E+04    0.84690E-04   -0.38263E-04  5190   0.200E-02    0.484E-02
RMM:   6    -0.116452494318E+04    0.94518E-05   -0.45099E-05  3776   0.740E-03    0.314E-02
RMM:   7    -0.116452494076E+04    0.24144E-05   -0.16176E-05  3489   0.444E-03    0.190E-02
RMM:   8    -0.116452494147E+04   -0.70893E-06   -0.11171E-05  3298   0.384E-03
   2 F= -.11645249E+04 E0= -.11645228E+04  d E =-.388981E-02  mag=     1.9663
       N       E                     dE             d eps       ncg     rms          rms(c)
DAV:   1    -0.116452666405E+04   -0.17233E-02   -0.28659E-01  6336   0.611E-01    0.184E-01
RMM:   2    -0.116452715774E+04   -0.49368E-03   -0.96254E-03  6108   0.122E-01    0.191E-01
RMM:   3    -0.116452706277E+04    0.94965E-04   -0.39996E-04  5225   0.259E-02    0.132E-01
RMM:   4    -0.116452697383E+04    0.88944E-04   -0.28216E-04  4749   0.172E-02    0.646E-02
RMM:   5    -0.116452694744E+04    0.26391E-04   -0.82424E-05  4066   0.993E-03    0.275E-02
RMM:   6    -0.116452694802E+04   -0.58030E-06   -0.18697E-05  3451   0.499E-03    0.171E-02
RMM:   7    -0.116452694806E+04   -0.48167E-07   -0.69418E-06  2710   0.288E-03    0.132E-02
RMM:   8    -0.116452694841E+04   -0.34201E-06   -0.35563E-06  2657   0.257E-03
   3 F= -.11645269E+04 E0= -.11645247E+04  d E =-.200693E-02  mag=     1.9669
       N       E                     dE             d eps       ncg     rms          rms(c)
DAV:   1    -0.116452780802E+04   -0.85996E-03   -0.30781E-01  6400   0.648E-01    0.125E-01
RMM:   2    -0.116452847160E+04   -0.66357E-03   -0.81151E-03  6146   0.111E-01    0.963E-02
RMM:   3    -0.116452844150E+04    0.30097E-04   -0.29631E-04  4250   0.257E-02    0.653E-02
RMM:   4    -0.116452841858E+04    0.22922E-04   -0.10958E-04  3573   0.117E-02    0.354E-02
RMM:   5    -0.116452841205E+04    0.65254E-05   -0.40714E-05  3489   0.705E-03    0.116E-02
RMM:   6    -0.116452841306E+04   -0.10089E-05   -0.12824E-05  3302   0.425E-03    0.867E-03
RMM:   7    -0.116452841355E+04   -0.49466E-06   -0.56111E-06  2605   0.280E-03    0.565E-03
RMM:   8    -0.116452841396E+04   -0.40913E-06   -0.32163E-06  2260   0.255E-03
   4 F= -.11645284E+04 E0= -.11645262E+04  d E =-.146556E-02  mag=     1.9665
