       N       E                     dE             d eps       ncg     rms          rms(c)
DAV:   1     0.119106442729E+05    0.11911E+05   -0.42154E+05 12320   0.131E+03
DAV:   2     0.638789151490E+03   -0.11272E+05   -0.10073E+05 12288   0.374E+02
DAV:   3    -0.137889982868E+04   -0.20177E+04   -0.19458E+04 13200   0.164E+02
DAV:   4    -0.151157444776E+04   -0.13267E+03   -0.13033E+03 16424   0.436E+01
DAV:   5    -0.151953632552E+04   -0.79619E+01   -0.79295E+01 21984   0.930E+00    0.183E+02
RMM:   6    -0.117554403435E+04    0.34399E+03   -0.16023E+03 12503   0.343E+01    0.971E+01
RMM:   7    -0.116225952024E+04    0.13285E+02   -0.59177E+01 12800   0.976E+00    0.564E+01
RMM:   8    -0.116835634896E+04   -0.60968E+01   -0.28447E+01 12553   0.621E+00    0.158E+01
RMM:   9    -0.116924528792E+04   -0.88894E+00   -0.23419E+00 14988   0.147E+00    0.772E+00
RMM:  10    -0.117032542178E+04   -0.10801E+01   -0.19227E+00 13428   0.120E+00    0.545E+00
RMM:  11    -0.117144122298E+04   -0.11158E+01   -0.11800E+00 13186   0.954E-01    0.329E+00
RMM:  12    -0.117183318298E+04   -0.39196E+00   -0.43969E-01 14056   0.597E-01    0.190E+00
RMM:  13    -0.117193253133E+04   -0.99348E-01   -0.19261E-01 14478   0.386E-01    0.146E+00
RMM:  14    -0.117197590494E+04   -0.43374E-01   -0.10015E-01 14068   0.275E-01    0.843E-01
RMM:  15    -0.117198334182E+04   -0.74369E-02   -0.24461E-02 15366   0.137E-01    0.390E-01
RMM:  16    -0.117198707440E+04   -0.37326E-02   -0.80034E-03 15944   0.759E-02    0.365E-01
RMM:  17    -0.117198775945E+04   -0.68505E-03   -0.37540E-03 14458   0.488E-02    0.237E-01
RMM:  18    -0.117198847502E+04   -0.71557E-03   -0.20753E-03 14011   0.370E-02    0.158E-01
RMM:  19    -0.117198872452E+04   -0.24950E-03   -0.10142E-03 12908   0.279E-02    0.701E-02
RMM:  20    -0.117198902754E+04   -0.30302E-03   -0.48696E-04 11710   0.206E-02    0.601E-02
RMM:  21    -0.117198917072E+04   -0.14318E-03   -0.21942E-04  8937   0.132E-02    0.468E-02
RMM:  22    -0.117198929299E+04   -0.12227E-03   -0.12009E-04  8332   0.104E-02    0.383E-02
RMM:  23    -0.117198938076E+04   -0.87775E-04   -0.63025E-05  8152   0.760E-03
   1 F= -.11719894E+04 E0= -.11719853E+04  d E =-.117199E+04  mag=     1.9809
       N       E                     dE             d eps       ncg     rms          rms(c)
DAV:   1    -0.114761441456E+04    0.24375E+02   -0.19585E+03 13032   0.412E+01    0.372E+01
RMM:   2    -0.116636269517E+04   -0.18748E+02   -0.21181E+02 12322   0.108E+01    0.215E+01
RMM:   3    -0.116492868727E+04    0.14340E+01   -0.13078E+01 12389   0.252E+00    0.135E+01
RMM:   4    -0.116489495749E+04    0.33730E-01   -0.44180E+00 12604   0.145E+00    0.770E+00
RMM:   5    -0.116443357373E+04    0.46138E+00   -0.21306E+00 12544   0.855E-01    0.392E+00
RMM:   6    -0.116437516360E+04    0.58410E-01   -0.44154E-01 13068   0.460E-01    0.436E+00
RMM:   7    -0.116433966920E+04    0.35494E-01   -0.14370E-01 13561   0.239E-01    0.195E+00
RMM:   8    -0.116432193079E+04    0.17738E-01   -0.47234E-02 13184   0.156E-01    0.135E+00
RMM:   9    -0.116432253765E+04   -0.60686E-03   -0.46824E-02 12960   0.127E-01    0.114E+00
RMM:  10    -0.116437870739E+04   -0.56170E-01   -0.12487E-02 12954   0.827E-02    0.323E+00
RMM:  11    -0.116434630748E+04    0.32400E-01   -0.52127E-03 12754   0.509E-02    0.242E+00
RMM:  12    -0.116433196579E+04    0.14342E-01   -0.37446E-03 11785   0.455E-02    0.166E+00
RMM:  13    -0.116433408526E+04   -0.21195E-02   -0.53991E-03 11800   0.664E-02    0.121E+00
RMM:  14    -0.116433822768E+04   -0.41424E-02   -0.32350E-03 11504   0.532E-02    0.902E-01
RMM:  15    -0.116434063344E+04   -0.24058E-02   -0.14783E-03 11146   0.335E-02    0.807E-01
RMM:  16    -0.116434878237E+04   -0.81489E-02   -0.37534E-03 12062   0.591E-02    0.742E-01
RMM:  17    -0.116435785567E+04   -0.90733E-02   -0.73600E-03 12091   0.829E-02    0.810E-01
RMM:  18    -0.116436239876E+04   -0.45431E-02   -0.70637E-03 12422   0.787E-02    0.826E-01
RMM:  19    -0.116436365979E+04   -0.12610E-02   -0.12559E-02 12169   0.109E-01    0.708E-01
RMM:  20    -0.116436076333E+04    0.28965E-02   -0.28025E-03 11955   0.450E-02    0.427E-01
RMM:  21    -0.116436054369E+04    0.21964E-03   -0.86765E-04 10462   0.268E-02    0.302E-01
RMM:  22    -0.116436107471E+04   -0.53102E-03   -0.27592E-04  8996   0.158E-02    0.261E-01
RMM:  23    -0.116436139710E+04   -0.32238E-03   -0.94840E-05  8145   0.875E-03    0.243E-01
RMM:  24    -0.116436243947E+04   -0.10424E-02   -0.27615E-04  8561   0.158E-02    0.200E-01
RMM:  25    -0.116436375850E+04   -0.13190E-02   -0.96743E-04 10503   0.278E-02    0.141E-01
RMM:  26    -0.116436419079E+04   -0.43229E-03   -0.44429E-04  9243   0.186E-02    0.115E-01
RMM:  27    -0.116436429418E+04   -0.10339E-03   -0.18965E-04  8274   0.123E-02    0.877E-02
RMM:  28    -0.116436431568E+04   -0.21500E-04   -0.11898E-04  8015   0.915E-03
   2 F= -.11643643E+04 E0= -.11643581E+04  d E =0.762507E+01  mag=     0.1613
       N       E                     dE             d eps       ncg     rms          rms(c)
DAV:   1    -0.116357562413E+04    0.78867E+00   -0.12616E+03 12560   0.270E+01    0.283E+01
RMM:   2    -0.117236009839E+04   -0.87845E+01   -0.92083E+01 12288   0.743E+00    0.252E+01
RMM:   3    -0.117207870076E+04    0.28140E+00   -0.57990E+00 12461   0.196E+00    0.178E+01
RMM:   4    -0.117092655910E+04    0.11521E+01   -0.60868E+00 12344   0.187E+00    0.101E+01
RMM:   5    -0.117050385226E+04    0.42271E+00   -0.98743E-01 12346   0.827E-01    0.407E+00
RMM:   6    -0.117015563710E+04    0.34822E+00   -0.41506E-01 12318   0.549E-01    0.216E+00
RMM:   7    -0.117028527842E+04   -0.12964E+00   -0.13661E-01 12389   0.293E-01    0.456E+00
RMM:   8    -0.117038235778E+04   -0.97079E-01   -0.17252E-02 15543   0.981E-02    0.416E+00
RMM:   9    -0.117041021544E+04   -0.27858E-01   -0.38604E-03 16490   0.359E-02    0.409E+00
RMM:  10    -0.117059642347E+04   -0.18621E+00   -0.64746E-02 12121   0.216E-01    0.291E+00
RMM:  11    -0.117064881358E+04   -0.52390E-01   -0.52658E-02 12133   0.192E-01    0.191E+00
RMM:  12    -0.117065505791E+04   -0.62443E-02   -0.28434E-02 12355   0.144E-01    0.129E+00
RMM:  13    -0.117064705447E+04    0.80034E-02   -0.16661E-02 12197   0.108E-01    0.100E+00
RMM:  14    -0.117064707171E+04   -0.17240E-04   -0.12024E-02 12616   0.921E-02    0.696E-01
RMM:  15    -0.117064775824E+04   -0.68653E-03   -0.97787E-03 12416   0.829E-02    0.383E-01
RMM:  16    -0.117064873199E+04   -0.97376E-03   -0.60491E-03 12708   0.605E-02    0.212E-01
RMM:  17    -0.117065038757E+04   -0.16556E-02   -0.12976E-03 11298   0.317E-02    0.202E-01
RMM:  18    -0.117065169815E+04   -0.13106E-02   -0.46758E-04  9578   0.207E-02    0.188E-01
RMM:  19    -0.117065380096E+04   -0.21028E-02   -0.10349E-03 10472   0.319E-02    0.160E-01
RMM:  20    -0.117065576177E+04   -0.19608E-02   -0.11588E-03 10536   0.337E-02    0.150E-01
RMM:  21    -0.117065614574E+04   -0.38397E-03   -0.22131E-04  8401   0.132E-02    0.150E-01
RMM:  22    -0.117065692295E+04   -0.77720E-03   -0.25383E-04  8858   0.148E-02    0.141E-01
RMM:  23    -0.117065822485E+04   -0.13019E-02   -0.11383E-03 10684   0.329E-02    0.119E-01
RMM:  24    -0.117065899215E+04   -0.76730E-03   -0.81326E-04 10464   0.272E-02    0.932E-02
RMM:  25    -0.117065973240E+04   -0.74025E-03   -0.85474E-04 10137   0.279E-02    0.769E-02
RMM:  26    -0.117066019931E+04   -0.46692E-03   -0.68027E-04  9644   0.242E-02    0.587E-02
RMM:  27    -0.117066048726E+04   -0.28795E-03   -0.49826E-04  8993   0.202E-02    0.441E-02
RMM:  28    -0.117066069183E+04   -0.20457E-03   -0.51491E-04  8997   0.202E-02    0.366E-02
RMM:  29    -0.117066078106E+04   -0.89229E-04   -0.22082E-04  8071   0.124E-02
   3 F= -.11706608E+04 E0= -.11706528E+04  d E =-.629647E+01  mag=    -1.9782
       N       E                     dE             d eps       ncg     rms          rms(c)
DAV:   1    -0.117093710490E+04   -0.27641E+00   -0.39951E+02 12568   0.210E+01    0.697E+00
RMM:   2    -0.117253904383E+04   -0.16019E+01   -0.15633E+01 12288   0.455E+00    0.974E+00
RMM:   3    -0.117240261124E+04    0.13643E+00   -0.69041E-01 13004   0.955E-01    0.789E+00
RMM:   4    -0.117231034141E+04    0.92270E-01   -0.38351E-01 12269   0.552E-01    0.470E+00
RMM:   5    -0.117221584300E+04    0.94498E-01   -0.15950E-01 12232   0.331E-01    0.212E+00
RMM:   6    -0.117223603912E+04   -0.20196E-01   -0.77977E-02 12235   0.262E-01    0.915E-01
RMM:   7    -0.117223915591E+04   -0.31168E-02   -0.18528E-02 12266   0.128E-01    0.607E-01
RMM:   8    -0.117224114075E+04   -0.19848E-02   -0.63653E-03 13109   0.586E-02    0.473E-01
RMM:   9    -0.117224466173E+04   -0.35210E-02   -0.35883E-03 11553   0.546E-02    0.327E-01
RMM:  10    -0.117224940972E+04   -0.47480E-02   -0.46082E-03 12015   0.674E-02    0.233E-01
RMM:  11    -0.117225106268E+04   -0.16530E-02   -0.17531E-03 11154   0.390E-02    0.157E-01
RMM:  12    -0.117225293471E+04   -0.18720E-02   -0.14338E-03 10966   0.388E-02    0.117E-01
RMM:  13    -0.117225401284E+04   -0.10781E-02   -0.77518E-04 10429   0.280E-02    0.116E-01
RMM:  14    -0.117225437938E+04   -0.36654E-03   -0.22606E-04  8653   0.142E-02    0.113E-01
RMM:  15    -0.117225478436E+04   -0.40498E-03   -0.18069E-04  8490   0.126E-02    0.110E-01
RMM:  16    -0.117225585667E+04   -0.10723E-02   -0.12416E-03 10723   0.341E-02    0.936E-02
RMM:  17    -0.117225660122E+04   -0.74454E-03   -0.13593E-03 10844   0.347E-02    0.623E-02
RMM:  18    -0.117225728057E+04   -0.67936E-03   -0.13728E-03 10804   0.359E-02    0.425E-02
RMM:  19    -0.117225769202E+04   -0.41144E-03   -0.78372E-04 10413   0.264E-02    0.526E-02
RMM:  20    -0.117225773904E+04   -0.47029E-04   -0.10635E-04  7973   0.917E-03
   4 F= -.11722577E+04 E0= -.11722498E+04  d E =-.159696E+01  mag=    -1.9702
       N       E                     dE             d eps       ncg     rms          rms(c)
DAV:   1    -0.117282499796E+04   -0.56731E+00   -0.93197E+01 12968   0.924E+00    0.325E+00
RMM:   2    -0.117309997240E+04   -0.27497E+00   -0.26753E+00 12290   0.172E+00    0.307E+00
RMM:   3    -0.117307812839E+04    0.21844E-01   -0.14537E-01 12765   0.381E-01    0.183E+00
RMM:   4    -0.117308000659E+04   -0.18782E-02   -0.63490E-02 12247   0.228E-01    0.114E+00
RMM:   5    -0.117308274224E+04   -0.27356E-02   -0.32407E-02 12198   0.172E-01    0.503E-01
RMM:   6    -0.117308645632E+04   -0.37141E-02   -0.63337E-03 13975   0.699E-02    0.380E-01
RMM:   7    -0.117308875423E+04   -0.22979E-02   -0.24317E-03 13034   0.441E-02    0.263E-01
RMM:   8    -0.117309192926E+04   -0.31750E-02   -0.38012E-03 12290   0.638E-02    0.132E-01
RMM:   9    -0.117309243136E+04   -0.50210E-03   -0.71451E-04 11472   0.249E-02    0.959E-02
RMM:  10    -0.117309277037E+04   -0.33901E-03   -0.25745E-04  9176   0.168E-02    0.720E-02
RMM:  11    -0.117309302129E+04   -0.25092E-03   -0.17610E-04  8643   0.142E-02    0.400E-02
RMM:  12    -0.117309311909E+04   -0.97798E-04   -0.10761E-04  8180   0.103E-02
   5 F= -.11730931E+04 E0= -.11730847E+04  d E =-.835380E+00  mag=    -1.9898
       N       E                     dE             d eps       ncg     rms          rms(c)
DAV:   1    -0.117359260977E+04   -0.49959E+00   -0.66090E+01 12608   0.756E+00    0.267E+00
RMM:   2    -0.117374633544E+04   -0.15373E+00   -0.18852E+00 12292   0.141E+00    0.243E+00
RMM:   3    -0.117372759075E+04    0.18745E-01   -0.89100E-02 12718   0.283E-01    0.141E+00
RMM:   4    -0.117372072235E+04    0.68684E-02   -0.31656E-02 12172   0.151E-01    0.796E-01
RMM:   5    -0.117371645163E+04    0.42707E-02   -0.89755E-03 12141   0.862E-02    0.181E-01
RMM:   6    -0.117371653767E+04   -0.86044E-04   -0.12136E-03 12022   0.274E-02    0.139E-01
RMM:   7    -0.117371661445E+04   -0.76782E-04   -0.43993E-04 10090   0.181E-02    0.792E-02
RMM:   8    -0.117371667913E+04   -0.64677E-04   -0.16832E-04  8459   0.131E-02
   6 F= -.11737167E+04 E0= -.11737088E+04  d E =-.623560E+00  mag=    -1.9925
       N       E                     dE             d eps       ncg     rms          rms(c)
DAV:   1    -0.117406312801E+04   -0.34651E+00   -0.31058E+01 12688   0.486E+00    0.197E+00
RMM:   2    -0.117412724647E+04   -0.64118E-01   -0.79310E-01 12294   0.852E-01    0.130E+00
RMM:   3    -0.117412218440E+04    0.50621E-02   -0.46964E-02 12467   0.190E-01    0.642E-01
RMM:   4    -0.117411879789E+04    0.33865E-02   -0.13311E-02 12590   0.903E-02    0.336E-01
RMM:   5    -0.117411776043E+04    0.10375E-02   -0.30239E-03 12691   0.431E-02    0.145E-01
RMM:   6    -0.117411772872E+04    0.31719E-04   -0.51962E-04 10600   0.185E-02    0.840E-02
RMM:   7    -0.117411775324E+04   -0.24528E-04   -0.18605E-04  8479   0.119E-02    0.316E-02
RMM:   8    -0.117411775362E+04   -0.38071E-06   -0.76014E-05  7810   0.810E-03
   7 F= -.11741178E+04 E0= -.11741096E+04  d E =-.401074E+00  mag=    -1.9928
       N       E                     dE             d eps       ncg     rms          rms(c)
DAV:   1    -0.117431892678E+04   -0.20117E+00   -0.16802E+01 12848   0.384E+00    0.150E+00
RMM:   2    -0.117435596442E+04   -0.37038E-01   -0.44404E-01 12294   0.674E-01    0.108E+00
RMM:   3    -0.117435357170E+04    0.23927E-02   -0.26214E-02 12732   0.145E-01    0.569E-01
RMM:   4    -0.117435180394E+04    0.17678E-02   -0.81156E-03 12607   0.739E-02    0.295E-01
RMM:   5    -0.117435111960E+04    0.68433E-03   -0.18539E-03 12235   0.334E-02    0.957E-02
RMM:   6    -0.117435111133E+04    0.82717E-05   -0.29121E-04  9037   0.148E-02    0.616E-02
RMM:   7    -0.117435112757E+04   -0.16237E-04   -0.11727E-04  7891   0.960E-03    0.312E-02
RMM:   8    -0.117435112626E+04    0.13066E-05   -0.56855E-05  7349   0.759E-03
   8 F= -.11743511E+04 E0= -.11743430E+04  d E =-.233373E+00  mag=    -1.9931
       N       E                     dE             d eps       ncg     rms          rms(c)
DAV:   1    -0.117446992756E+04   -0.11880E+00   -0.68050E+01 12704   0.805E+00    0.308E+00
RMM:   2    -0.117465603073E+04   -0.18610E+00   -0.22569E+00 12294   0.160E+00    0.276E+00
RMM:   3    -0.117463951191E+04    0.16519E-01   -0.12243E-01 13870   0.334E-01    0.182E+00
RMM:   4    -0.117463219477E+04    0.73171E-02   -0.56160E-02 12746   0.200E-01    0.784E-01
RMM:   5    -0.117462760934E+04    0.45854E-02   -0.11265E-02 14039   0.879E-02    0.236E-01
RMM:   6    -0.117462748516E+04    0.12418E-03   -0.15232E-03 14149   0.335E-02    0.141E-01
RMM:   7    -0.117462751667E+04   -0.31512E-04   -0.63581E-04 12739   0.189E-02    0.811E-02
RMM:   8    -0.117462750332E+04    0.13351E-04   -0.26766E-04  9389   0.128E-02
   9 F= -.11746275E+04 E0= -.11746198E+04  d E =-.276377E+00  mag=    -1.9915
       N       E                     dE             d eps       ncg     rms          rms(c)
DAV:   1    -0.117462925830E+04   -0.17416E-02   -0.11076E+01 12992   0.369E+00    0.115E+00
RMM:   2    -0.117465706037E+04   -0.27802E-01   -0.34289E-01 12294   0.701E-01    0.120E+00
RMM:   3    -0.117465505047E+04    0.20099E-02   -0.16147E-02 14041   0.144E-01    0.917E-01
RMM:   4    -0.117465448858E+04    0.56189E-03   -0.72598E-03 12854   0.774E-02    0.461E-01
RMM:   5    -0.117465341351E+04    0.10751E-02   -0.29371E-03 12307   0.462E-02    0.967E-02
RMM:   6    -0.117465331103E+04    0.10248E-03   -0.29659E-04  9373   0.166E-02    0.688E-02
RMM:   7    -0.117465328496E+04    0.26067E-04   -0.10215E-04  7749   0.101E-02    0.388E-02
RMM:   8    -0.117465328122E+04    0.37406E-05   -0.79280E-05  7269   0.881E-03
  10 F= -.11746533E+04 E0= -.11746457E+04  d E =-.257779E-01  mag=    -1.9893
       N       E                     dE             d eps       ncg     rms          rms(c)
DAV:   1    -0.117464252613E+04    0.10759E-01   -0.10359E+01 12728   0.343E+00    0.119E+00
RMM:   2    -0.117466726117E+04   -0.24735E-01   -0.32475E-01 12294   0.644E-01    0.129E+00
RMM:   3    -0.117466489863E+04    0.23625E-02   -0.14671E-02 13505   0.128E-01    0.991E-01
RMM:   4    -0.117466448550E+04    0.41313E-03   -0.81953E-03 12145   0.806E-02    0.504E-01
RMM:   5    -0.117466298275E+04    0.15028E-02   -0.30164E-03 11496   0.466E-02    0.988E-02
RMM:   6    -0.117466291700E+04    0.65752E-04   -0.25917E-04  8920   0.166E-02    0.734E-02
RMM:   7    -0.117466290335E+04    0.13651E-04   -0.13621E-04  7980   0.109E-02    0.382E-02
RMM:   8    -0.117466290722E+04   -0.38705E-05   -0.60375E-05  7225   0.784E-03
  11 F= -.11746629E+04 E0= -.11746549E+04  d E =-.962599E-02  mag=    -1.9878
       N       E                     dE             d eps       ncg     rms          rms(c)
DAV:   1    -0.117467196010E+04   -0.90568E-02   -0.10397E+01 12752   0.358E+00    0.979E-01
RMM:   2    -0.117469705138E+04   -0.25091E-01   -0.29741E-01 12294   0.645E-01    0.864E-01
RMM:   3    -0.117469578672E+04    0.12647E-02   -0.14582E-02 13441   0.141E-01    0.604E-01
RMM:   4    -0.117469516165E+04    0.62506E-03   -0.53239E-03 12650   0.682E-02    0.313E-01
RMM:   5    -0.117469480795E+04    0.35370E-03   -0.19342E-03 12012   0.395E-02    0.920E-02
RMM:   6    -0.117469481532E+04   -0.73627E-05   -0.20352E-04  8753   0.145E-02    0.646E-02
RMM:   7    -0.117469484599E+04   -0.30678E-04   -0.11048E-04  8045   0.104E-02    0.450E-02
RMM:   8    -0.117469488069E+04   -0.34698E-04   -0.79510E-05  7451   0.957E-03
  12 F= -.11746949E+04 E0= -.11746873E+04  d E =-.319735E-01  mag=    -1.9848
       N       E                     dE             d eps       ncg     rms          rms(c)
DAV:   1    -0.117468732689E+04    0.75191E-02   -0.10643E+01 12736   0.374E+00    0.725E-01
RMM:   2    -0.117471177121E+04   -0.24444E-01   -0.27359E-01 12292   0.633E-01    0.639E-01
RMM:   3    -0.117471112348E+04    0.64773E-03   -0.12022E-02 13236   0.144E-01    0.454E-01
RMM:   4    -0.117471076453E+04    0.35895E-03   -0.34349E-03 13778   0.551E-02    0.297E-01
RMM:   5    -0.117471045993E+04    0.30459E-03   -0.19367E-03 12629   0.395E-02    0.692E-02
RMM:   6    -0.117471045648E+04    0.34497E-05   -0.19395E-04  8699   0.135E-02    0.487E-02
RMM:   7    -0.117471045959E+04   -0.31068E-05   -0.75562E-05  7510   0.895E-03    0.316E-02
RMM:   8    -0.117471048035E+04   -0.20761E-04   -0.72726E-05  7198   0.918E-03
  13 F= -.11747105E+04 E0= -.11747044E+04  d E =-.155997E-01  mag=    -1.9760
       N       E                     dE             d eps       ncg     rms          rms(c)
DAV:   1    -0.117470694897E+04    0.35106E-02   -0.10677E+01 12688   0.370E+00    0.822E-01
RMM:   2    -0.117473170156E+04   -0.24753E-01   -0.28556E-01 12293   0.639E-01    0.834E-01
RMM:   3    -0.117473068409E+04    0.10175E-02   -0.12183E-02 13327   0.141E-01    0.622E-01
RMM:   4    -0.117473028087E+04    0.40323E-03   -0.41601E-03 12842   0.593E-02    0.390E-01
RMM:   5    -0.117472957815E+04    0.70272E-03   -0.23042E-03 12085   0.413E-02    0.689E-02
RMM:   6    -0.117472953808E+04    0.40065E-04   -0.17564E-04  8373   0.138E-02    0.529E-02
RMM:   7    -0.117472952576E+04    0.12321E-04   -0.76323E-05  7381   0.888E-03    0.296E-02
RMM:   8    -0.117472952611E+04   -0.35092E-06   -0.75108E-05  7195   0.864E-03
  14 F= -.11747295E+04 E0= -.11747245E+04  d E =-.190458E-01  mag=    -1.9648
       N       E                     dE             d eps       ncg     rms          rms(c)
DAV:   1    -0.117472889454E+04    0.63123E-03   -0.52623E+00 12896   0.261E+00    0.449E-01
RMM:   2    -0.117474065396E+04   -0.11759E-01   -0.12933E-01 12295   0.429E-01    0.340E-01
RMM:   3    -0.117474036728E+04    0.28668E-03   -0.55226E-03 12814   0.100E-01    0.235E-01
RMM:   4    -0.117474011936E+04    0.24792E-03   -0.14951E-03 12884   0.361E-02    0.139E-01
RMM:   5    -0.117473999516E+04    0.12420E-03   -0.57122E-04 11652   0.206E-02    0.260E-02
RMM:   6    -0.117473999077E+04    0.43929E-05   -0.34153E-05  7247   0.832E-03    0.184E-02
RMM:   7    -0.117473999445E+04   -0.36859E-05   -0.59038E-05  7078   0.676E-03    0.103E-02
RMM:   8    -0.117473999592E+04   -0.14693E-05   -0.26522E-05  6857   0.554E-03
  15 F= -.11747400E+04 E0= -.11747350E+04  d E =-.104698E-01  mag=    -1.9619
       N       E                     dE             d eps       ncg     rms          rms(c)
DAV:   1    -0.117473812426E+04    0.18702E-02   -0.46798E+00 12832   0.247E+00    0.395E-01
RMM:   2    -0.117474839664E+04   -0.10272E-01   -0.11179E-01 12295   0.397E-01    0.261E-01
RMM:   3    -0.117474816211E+04    0.23453E-03   -0.46065E-03 12434   0.950E-02    0.171E-01
RMM:   4    -0.117474792998E+04    0.23213E-03   -0.14096E-03 12613   0.347E-02    0.771E-02
RMM:   5    -0.117474788174E+04    0.48237E-04   -0.26142E-04  9841   0.147E-02    0.234E-02
RMM:   6    -0.117474788475E+04   -0.30135E-05   -0.28724E-05  7179   0.824E-03    0.145E-02
RMM:   7    -0.117474788981E+04   -0.50544E-05   -0.61071E-05  7076   0.676E-03    0.872E-03
RMM:   8    -0.117474789133E+04   -0.15202E-05   -0.27873E-05  6660   0.526E-03
  16 F= -.11747479E+04 E0= -.11747429E+04  d E =-.789541E-02  mag=    -1.9605
       N       E                     dE             d eps       ncg     rms          rms(c)
DAV:   1    -0.117474259679E+04    0.52930E-02   -0.59979E+00 12816   0.280E+00    0.445E-01
RMM:   2    -0.117475586907E+04   -0.13272E-01   -0.14395E-01 12295   0.452E-01    0.287E-01
RMM:   3    -0.117475557470E+04    0.29437E-03   -0.58920E-03 12471   0.108E-01    0.189E-01
RMM:   4    -0.117475529588E+04    0.27882E-03   -0.18300E-03 13060   0.393E-02    0.880E-02
RMM:   5    -0.117475522723E+04    0.68655E-04   -0.34932E-04 10769   0.163E-02    0.258E-02
RMM:   6    -0.117475523043E+04   -0.32062E-05   -0.30642E-05  7291   0.868E-03    0.154E-02
RMM:   7    -0.117475523620E+04   -0.57706E-05   -0.71405E-05  7220   0.713E-03    0.762E-03
RMM:   8    -0.117475523755E+04   -0.13449E-05   -0.28801E-05  6715   0.558E-03
  17 F= -.11747552E+04 E0= -.11747502E+04  d E =-.734622E-02  mag=    -1.9614
       N       E                     dE             d eps       ncg     rms          rms(c)
DAV:   1    -0.117475059125E+04    0.46450E-02   -0.48186E+00 12824   0.251E+00    0.404E-01
RMM:   2    -0.117476124459E+04   -0.10653E-01   -0.11541E-01 12295   0.405E-01    0.255E-01
RMM:   3    -0.117476100738E+04    0.23720E-03   -0.47461E-03 12435   0.970E-02    0.167E-01
RMM:   4    -0.117476076663E+04    0.24075E-03   -0.15110E-03 12802   0.358E-02    0.565E-02
RMM:   5    -0.117476074879E+04    0.17842E-04   -0.22609E-04  8909   0.134E-02    0.227E-02
RMM:   6    -0.117476075027E+04   -0.14858E-05   -0.25297E-05  7179   0.826E-03    0.136E-02
RMM:   7    -0.117476075612E+04   -0.58476E-05   -0.69824E-05  7108   0.697E-03    0.830E-03
RMM:   8    -0.117476075665E+04   -0.53451E-06   -0.18368E-05  6648   0.538E-03
  18 F= -.11747608E+04 E0= -.11747557E+04  d E =-.551911E-02  mag=    -1.9614
       N       E                     dE             d eps       ncg     rms          rms(c)
DAV:   1    -0.117475862495E+04    0.21312E-02   -0.24898E+00 13016   0.180E+00    0.286E-01
RMM:   2    -0.117476411853E+04   -0.54936E-02   -0.59577E-02 12296   0.290E-01    0.178E-01
RMM:   3    -0.117476398737E+04    0.13116E-03   -0.24671E-03 12375   0.697E-02    0.117E-01
RMM:   4    -0.117476386140E+04    0.12597E-03   -0.76374E-04 12239   0.256E-02    0.442E-02
RMM:   5    -0.117476384885E+04    0.12551E-04   -0.11795E-04  7483   0.105E-02    0.172E-02
RMM:   6    -0.117476385237E+04   -0.35234E-05   -0.34450E-05  6993   0.664E-03    0.101E-02
RMM:   7    -0.117476385498E+04   -0.26060E-05   -0.32368E-05  6748   0.534E-03    0.667E-03
RMM:   8    -0.117476385632E+04   -0.13419E-05   -0.18434E-05  6380   0.427E-03
  19 F= -.11747639E+04 E0= -.11747588E+04  d E =-.309967E-02  mag=    -1.9606
