       N       E                     dE             d eps       ncg     rms          rms(c)
DAV:   1    -0.117205972724E+04   -0.11721E+04   -0.52165E-06  3816   0.688E-03    0.159E-02
RMM:   2    -0.117205972671E+04    0.53442E-06   -0.39093E-06  2165   0.292E-03    0.248E-02
RMM:   3    -0.117205972675E+04   -0.43496E-07   -0.77083E-07  1254   0.207E-03    0.330E-03
RMM:   4    -0.117205972675E+04    0.38126E-08   -0.20490E-07   746   0.177E-03    0.699E-04
RMM:   5    -0.117205972675E+04    0.28958E-08   -0.42813E-08   508   0.162E-03    0.594E-04
RMM:   6    -0.117205972674E+04    0.10768E-08   -0.73440E-09   356   0.159E-03    0.346E-04
RMM:   7    -0.117205972674E+04    0.21973E-08   -0.55020E-10   332   0.159E-03    0.168E-04
RMM:   8    -0.117205972674E+04   -0.87311E-10    0.00000E+00   305   0.159E-03
   1 F= -.11720597E+04 E0= -.11720597E+04  d E =-.117206E+04  mag=     6.0000
       N       E                     dE             d eps       ncg     rms          rms(c)
DAV:   1    -0.117205976116E+04   -0.34415E-04   -0.53613E-02  6064   0.271E-01    0.793E-02
RMM:   2    -0.117205982806E+04   -0.66904E-04   -0.17960E-03  6088   0.544E-02    0.785E-02
RMM:   3    -0.117205980745E+04    0.20612E-04   -0.59022E-05  3508   0.135E-02    0.526E-02
RMM:   4    -0.117205978610E+04    0.21345E-04   -0.53050E-05  3510   0.893E-03    0.298E-02
RMM:   5    -0.117205978156E+04    0.45440E-05   -0.18987E-05  3171   0.623E-03    0.349E-02
RMM:   6    -0.117205978163E+04   -0.74404E-07   -0.68511E-06  2808   0.380E-03    0.737E-03
RMM:   7    -0.117205978178E+04   -0.15004E-06   -0.21462E-06  2192   0.266E-03    0.822E-03
RMM:   8    -0.117205978192E+04   -0.13653E-06   -0.13515E-06  1874   0.225E-03
   2 F= -.11720598E+04 E0= -.11720598E+04  d E =-.551780E-04  mag=     6.0000
       N       E                     dE             d eps       ncg     rms          rms(c)
DAV:   1    -0.117205991961E+04   -0.13782E-03   -0.10423E-02  6240   0.116E-01    0.376E-02
RMM:   2    -0.117205991310E+04    0.65093E-05   -0.38370E-04  5157   0.247E-02    0.378E-02
RMM:   3    -0.117205990499E+04    0.81088E-05   -0.19845E-05  3149   0.717E-03    0.242E-02
RMM:   4    -0.117205989640E+04    0.85905E-05   -0.23118E-05  3032   0.545E-03    0.146E-02
RMM:   5    -0.117205989459E+04    0.18114E-05   -0.54195E-06  2566   0.353E-03    0.888E-03
RMM:   6    -0.117205989454E+04    0.47308E-07   -0.12103E-06  1540   0.211E-03    0.482E-03
RMM:   7    -0.117205989455E+04   -0.74651E-08   -0.40194E-07  1086   0.196E-03    0.321E-03
RMM:   8    -0.117205989452E+04    0.30690E-07   -0.10364E-07   804   0.183E-03
   3 F= -.11720599E+04 E0= -.11720599E+04  d E =-.112597E-03  mag=     6.0000
