       N       E                     dE             d eps       ncg     rms          rms(c)
DAV:   1    -0.117222383955E+04   -0.11722E+04   -0.18916E-05  4456   0.134E-02    0.262E-02
RMM:   2    -0.117222384076E+04   -0.12074E-05   -0.18335E-05  3200   0.617E-03    0.396E-02
RMM:   3    -0.117222384162E+04   -0.86262E-06   -0.48938E-06  2679   0.357E-03    0.749E-03
RMM:   4    -0.117222384291E+04   -0.12849E-05   -0.22143E-06  1844   0.245E-03    0.736E-03
RMM:   5    -0.117222384402E+04   -0.11129E-05   -0.16790E-06  1792   0.256E-03    0.683E-03
RMM:   6    -0.117222384549E+04   -0.14705E-05   -0.14848E-06  1609   0.221E-03    0.565E-03
RMM:   7    -0.117222384712E+04   -0.16263E-05   -0.14556E-06  1588   0.225E-03    0.593E-03
RMM:   8    -0.117222384928E+04   -0.21592E-05   -0.27959E-06  1929   0.245E-03
   1 F= -.11722238E+04 E0= -.11722238E+04  d E =-.117222E+04  mag=     6.0000
       N       E                     dE             d eps       ncg     rms          rms(c)
DAV:   1    -0.117222412500E+04   -0.27788E-03   -0.20004E-01  6256   0.519E-01    0.128E-01
RMM:   2    -0.117222456778E+04   -0.44279E-03   -0.57989E-03  6110   0.974E-02    0.116E-01
RMM:   3    -0.117222454091E+04    0.26870E-04   -0.20887E-04  4063   0.264E-02    0.761E-02
RMM:   4    -0.117222450768E+04    0.33230E-04   -0.12031E-04  3670   0.136E-02    0.475E-02
RMM:   5    -0.117222450427E+04    0.34188E-05   -0.33498E-05  3463   0.855E-03    0.263E-02
RMM:   6    -0.117222450577E+04   -0.15018E-05   -0.13293E-05  3231   0.486E-03    0.119E-02
RMM:   7    -0.117222450687E+04   -0.11074E-05   -0.55537E-06  2724   0.375E-03    0.106E-02
RMM:   8    -0.117222450832E+04   -0.14489E-05   -0.43175E-06  2587   0.287E-03
   2 F= -.11722245E+04 E0= -.11722245E+04  d E =-.659047E-03  mag=     6.0000
       N       E                     dE             d eps       ncg     rms          rms(c)
DAV:   1    -0.117222477397E+04   -0.26710E-03   -0.48916E-02  6080   0.255E-01    0.620E-02
RMM:   2    -0.117222486221E+04   -0.88238E-04   -0.13986E-03  6016   0.482E-02    0.632E-02
RMM:   3    -0.117222485258E+04    0.96367E-05   -0.53030E-05  3397   0.140E-02    0.451E-02
RMM:   4    -0.117222484506E+04    0.75196E-05   -0.26945E-05  3256   0.673E-03    0.277E-02
RMM:   5    -0.117222484249E+04    0.25657E-05   -0.15145E-05  2944   0.537E-03    0.325E-02
RMM:   6    -0.117222484316E+04   -0.66696E-06   -0.51666E-06  2432   0.352E-03    0.672E-03
RMM:   7    -0.117222484359E+04   -0.43203E-06   -0.16127E-06  1709   0.238E-03    0.545E-03
RMM:   8    -0.117222484421E+04   -0.62086E-06   -0.16093E-06  1684   0.242E-03
   3 F= -.11722248E+04 E0= -.11722248E+04  d E =-.335886E-03  mag=     6.0000
