       N       E                     dE             d eps       ncg     rms          rms(c)
DAV:   1    -0.116286203780E+04   -0.11629E+04   -0.11926E-05  8112   0.935E-03    0.104E-02
RMM:   2    -0.116286205522E+04   -0.17418E-04   -0.23054E-05  5413   0.579E-03    0.143E-02
RMM:   3    -0.116286205779E+04   -0.25695E-05   -0.56679E-06  3865   0.289E-03    0.130E-02
RMM:   4    -0.116286204823E+04    0.95557E-05   -0.20487E-06  3498   0.255E-03    0.124E-02
RMM:   5    -0.116286203616E+04    0.12072E-04   -0.33781E-06  3731   0.309E-03    0.128E-02
RMM:   6    -0.116286202253E+04    0.13630E-04   -0.45936E-06  3299   0.284E-03    0.136E-02
RMM:   7    -0.116286206327E+04   -0.40739E-04   -0.22396E-05  4683   0.647E-03    0.117E-02
RMM:   8    -0.116286210181E+04   -0.38543E-04   -0.36982E-05  5132   0.666E-03
   1 F= -.11628621E+04 E0= -.11628621E+04  d E =-.116286E+04  mag=     6.0000
       N       E                     dE             d eps       ncg     rms          rms(c)
DAV:   1    -0.116285137203E+04    0.10691E-01   -0.37838E+00 12672   0.195E+00    0.107E+00
RMM:   2    -0.116287088193E+04   -0.19510E-01   -0.10680E-01 12410   0.407E-01    0.651E-01
RMM:   3    -0.116287289207E+04   -0.20101E-02   -0.60073E-03 12285   0.132E-01    0.315E-01
RMM:   4    -0.116287265437E+04    0.23769E-03   -0.19935E-03 11989   0.536E-02    0.137E-01
RMM:   5    -0.116287271006E+04   -0.55689E-04   -0.35525E-04  9210   0.256E-02    0.595E-02
RMM:   6    -0.116287274794E+04   -0.37878E-04   -0.71225E-05  7391   0.122E-02    0.334E-02
RMM:   7    -0.116287279862E+04   -0.50680E-04   -0.49040E-05  7199   0.934E-03    0.290E-02
RMM:   8    -0.116287285007E+04   -0.51447E-04   -0.39983E-05  7029   0.797E-03
   2 F= -.11628729E+04 E0= -.11628728E+04  d E =-.107483E-01  mag=     5.9998
       N       E                     dE             d eps       ncg     rms          rms(c)
DAV:   1    -0.116287377891E+04   -0.98029E-03   -0.53171E-01 12704   0.789E-01    0.365E-01
RMM:   2    -0.116287557249E+04   -0.17936E-02   -0.14820E-02 12385   0.155E-01    0.246E-01
RMM:   3    -0.116287567638E+04   -0.10389E-03   -0.90806E-04 11723   0.539E-02    0.130E-01
RMM:   4    -0.116287559693E+04    0.79449E-04   -0.51769E-04 10532   0.255E-02    0.604E-02
RMM:   5    -0.116287562245E+04   -0.25525E-04   -0.11038E-04  7744   0.166E-02    0.312E-02
RMM:   6    -0.116287564657E+04   -0.24116E-04   -0.39247E-05  7158   0.775E-03    0.276E-02
RMM:   7    -0.116287566771E+04   -0.21143E-04   -0.17559E-05  6700   0.579E-03    0.238E-02
RMM:   8    -0.116287571332E+04   -0.45611E-04   -0.29864E-05  6774   0.683E-03
   3 F= -.11628757E+04 E0= -.11628757E+04  d E =-.286326E-02  mag=     5.9999
       N       E                     dE             d eps       ncg     rms          rms(c)
DAV:   1    -0.116287569910E+04   -0.31391E-04   -0.48605E-01 12672   0.750E-01    0.332E-01
RMM:   2    -0.116287764446E+04   -0.19454E-02   -0.12370E-02 12377   0.142E-01    0.204E-01
RMM:   3    -0.116287783897E+04   -0.19451E-03   -0.73244E-04 10856   0.490E-02    0.103E-01
RMM:   4    -0.116287785175E+04   -0.12780E-04   -0.25802E-04  8312   0.205E-02    0.545E-02
RMM:   5    -0.116287790228E+04   -0.50523E-04   -0.98497E-05  7273   0.129E-02    0.344E-02
RMM:   6    -0.116287793660E+04   -0.34326E-04   -0.39617E-05  7004   0.849E-03    0.256E-02
RMM:   7    -0.116287797460E+04   -0.37996E-04   -0.25551E-05  6749   0.607E-03    0.224E-02
RMM:   8    -0.116287805193E+04   -0.77333E-04   -0.57365E-05  6806   0.855E-03
   4 F= -.11628781E+04 E0= -.11628780E+04  d E =-.233861E-02  mag=     5.9998
       N       E                     dE             d eps       ncg     rms          rms(c)
DAV:   1    -0.116287761398E+04    0.36062E-03   -0.50038E-01 12632   0.775E-01    0.305E-01
RMM:   2    -0.116287955118E+04   -0.19372E-02   -0.12104E-02 12595   0.138E-01    0.170E-01
RMM:   3    -0.116287974040E+04   -0.18922E-03   -0.66781E-04 10410   0.475E-02    0.863E-02
RMM:   4    -0.116287978421E+04   -0.43805E-04   -0.18485E-04  7639   0.183E-02    0.426E-02
RMM:   5    -0.116287985618E+04   -0.71971E-04   -0.10200E-04  7236   0.118E-02    0.268E-02
RMM:   6    -0.116287989304E+04   -0.36865E-04   -0.36224E-05  6952   0.823E-03    0.244E-02
RMM:   7    -0.116287993224E+04   -0.39200E-04   -0.26807E-05  6705   0.608E-03    0.225E-02
RMM:   8    -0.116288002030E+04   -0.88054E-04   -0.64056E-05  6732   0.886E-03
   5 F= -.11628800E+04 E0= -.11628800E+04  d E =-.196836E-02  mag=     5.9998
       N       E                     dE             d eps       ncg     rms          rms(c)
DAV:   1    -0.116287964199E+04    0.29025E-03   -0.43545E-01 12576   0.728E-01    0.262E-01
RMM:   2    -0.116288120792E+04   -0.15659E-02   -0.10406E-02 12695   0.128E-01    0.148E-01
RMM:   3    -0.116288134968E+04   -0.14176E-03   -0.56281E-04  9704   0.435E-02    0.771E-02
RMM:   4    -0.116288139730E+04   -0.47617E-04   -0.16667E-04  7450   0.168E-02    0.400E-02
RMM:   5    -0.116288146876E+04   -0.71457E-04   -0.85471E-05  7202   0.111E-02    0.263E-02
RMM:   6    -0.116288150521E+04   -0.36458E-04   -0.32937E-05  6891   0.776E-03    0.238E-02
RMM:   7    -0.116288154946E+04   -0.44246E-04   -0.28592E-05  6694   0.641E-03    0.222E-02
RMM:   8    -0.116288165639E+04   -0.10693E-03   -0.95171E-05  6864   0.105E-02    0.206E-02
RMM:   9    -0.116288175676E+04   -0.10037E-03   -0.12364E-04  6570   0.991E-03    0.187E-02
RMM:  10    -0.116288183949E+04   -0.82725E-04   -0.10606E-04  6405   0.851E-03
   6 F= -.11628818E+04 E0= -.11628818E+04  d E =-.181919E-02  mag=     5.9998
       N       E                     dE             d eps       ncg     rms          rms(c)
DAV:   1    -0.116288176692E+04   -0.10162E-04   -0.33803E-01 12640   0.646E-01    0.220E-01
RMM:   2    -0.116288296383E+04   -0.11969E-02   -0.81156E-03 12571   0.113E-01    0.122E-01
RMM:   3    -0.116288306874E+04   -0.10491E-03   -0.43097E-04  9037   0.400E-02    0.637E-02
RMM:   4    -0.116288309480E+04   -0.26055E-04   -0.11670E-04  7275   0.146E-02    0.326E-02
RMM:   5    -0.116288314047E+04   -0.45672E-04   -0.61674E-05  7090   0.950E-03    0.211E-02
RMM:   6    -0.116288316308E+04   -0.22617E-04   -0.22795E-05  6804   0.675E-03    0.191E-02
RMM:   7    -0.116288318613E+04   -0.23047E-04   -0.16692E-05  6241   0.513E-03    0.185E-02
RMM:   8    -0.116288322607E+04   -0.39939E-04   -0.24004E-05  6175   0.555E-03
   7 F= -.11628832E+04 E0= -.11628832E+04  d E =-.138659E-02  mag=     5.9998
       N       E                     dE             d eps       ncg     rms          rms(c)
DAV:   1    -0.116288305037E+04    0.13577E-03   -0.33789E-01 12584   0.649E-01    0.197E-01
RMM:   2    -0.116288412337E+04   -0.10730E-02   -0.82171E-03 12742   0.113E-01    0.113E-01
RMM:   3    -0.116288419601E+04   -0.72639E-04   -0.41666E-04  8955   0.379E-02    0.640E-02
RMM:   4    -0.116288422811E+04   -0.32108E-04   -0.12053E-04  7268   0.143E-02    0.344E-02
RMM:   5    -0.116288428192E+04   -0.53803E-04   -0.64986E-05  7063   0.985E-03    0.217E-02
RMM:   6    -0.116288431156E+04   -0.29643E-04   -0.26861E-05  6798   0.676E-03    0.204E-02
RMM:   7    -0.116288434548E+04   -0.33921E-04   -0.22564E-05  6403   0.588E-03    0.196E-02
RMM:   8    -0.116288442306E+04   -0.77580E-04   -0.69428E-05  6661   0.892E-03
   8 F= -.11628844E+04 E0= -.11628844E+04  d E =-.119699E-02  mag=     5.9998
       N       E                     dE             d eps       ncg     rms          rms(c)
DAV:   1    -0.116288434692E+04   -0.14405E-05   -0.29295E-01 12512   0.607E-01    0.168E-01
RMM:   2    -0.116288521773E+04   -0.87081E-03   -0.71303E-03 12736   0.105E-01    0.987E-02
RMM:   3    -0.116288526841E+04   -0.50675E-04   -0.34990E-04  8508   0.352E-02    0.583E-02
RMM:   4    -0.116288529905E+04   -0.30639E-04   -0.11119E-04  7227   0.134E-02    0.324E-02
RMM:   5    -0.116288535083E+04   -0.51786E-04   -0.60895E-05  7001   0.938E-03    0.214E-02
RMM:   6    -0.116288537957E+04   -0.28741E-04   -0.25752E-05  6739   0.643E-03    0.202E-02
RMM:   7    -0.116288541489E+04   -0.35320E-04   -0.22821E-05  6221   0.587E-03    0.196E-02
RMM:   8    -0.116288549036E+04   -0.75472E-04   -0.68102E-05  6596   0.868E-03
   9 F= -.11628855E+04 E0= -.11628855E+04  d E =-.106730E-02  mag=     5.9998
       N       E                     dE             d eps       ncg     rms          rms(c)
DAV:   1    -0.116288555918E+04   -0.14429E-03   -0.21273E-01 12368   0.520E-01    0.130E-01
RMM:   2    -0.116288615995E+04   -0.60076E-03   -0.52367E-03 12587   0.903E-02    0.783E-02
RMM:   3    -0.116288619165E+04   -0.31703E-04   -0.24961E-04  7944   0.307E-02    0.490E-02
RMM:   4    -0.116288622124E+04   -0.29592E-04   -0.88159E-05  7118   0.119E-02    0.290E-02
RMM:   5    -0.116288626756E+04   -0.46317E-04   -0.50010E-05  6920   0.813E-03    0.202E-02
RMM:   6    -0.116288629454E+04   -0.26978E-04   -0.22001E-05  6541   0.572E-03    0.194E-02
RMM:   7    -0.116288632411E+04   -0.29574E-04   -0.17943E-05  5758   0.511E-03    0.190E-02
RMM:   8    -0.116288638112E+04   -0.57007E-04   -0.42757E-05  6246   0.683E-03
  10 F= -.11628864E+04 E0= -.11628863E+04  d E =-.890755E-03  mag=     5.9998
