       N       E                     dE             d eps       ncg     rms          rms(c)
DAV:   1     0.119071168595E+05    0.11907E+05   -0.42103E+05 12352   0.131E+03
DAV:   2     0.655400681610E+03   -0.11252E+05   -0.10048E+05 12304   0.375E+02
DAV:   3    -0.135831609944E+04   -0.20137E+04   -0.19406E+04 13200   0.165E+02
DAV:   4    -0.149282229282E+04   -0.13451E+03   -0.13216E+03 16184   0.446E+01
DAV:   5    -0.150141894474E+04   -0.85967E+01   -0.85563E+01 22320   0.102E+01    0.184E+02
RMM:   6    -0.116225258439E+04    0.33917E+03   -0.15981E+03 12510   0.348E+01    0.109E+02
RMM:   7    -0.114697346509E+04    0.15279E+02   -0.63259E+01 12787   0.111E+01    0.675E+01
RMM:   8    -0.115129324453E+04   -0.43198E+01   -0.22173E+01 13366   0.550E+00    0.450E+01
RMM:   9    -0.115550030416E+04   -0.42071E+01   -0.17899E+01 13529   0.448E+00    0.249E+01
RMM:  10    -0.115512601251E+04    0.37429E+00   -0.52421E+00 12903   0.247E+00    0.108E+01
RMM:  11    -0.115575823389E+04   -0.63222E+00   -0.23440E+00 13486   0.167E+00    0.112E+01
RMM:  12    -0.115712994642E+04   -0.13717E+01   -0.10088E+00 14315   0.893E-01    0.700E+00
RMM:  13    -0.115780795451E+04   -0.67801E+00   -0.85161E-01 13018   0.892E-01    0.328E+00
RMM:  14    -0.115803792992E+04   -0.22998E+00   -0.23353E-01 14001   0.490E-01    0.305E+00
RMM:  15    -0.115818450881E+04   -0.14658E+00   -0.16445E-01 13604   0.364E-01    0.232E+00
RMM:  16    -0.115834093164E+04   -0.15642E+00   -0.31771E-01 12562   0.580E-01    0.148E+00
RMM:  17    -0.115835425735E+04   -0.13326E-01   -0.42739E-02 14113   0.234E-01    0.107E+00
RMM:  18    -0.115836367714E+04   -0.94198E-02   -0.17332E-02 15177   0.116E-01    0.770E-01
RMM:  19    -0.115837207793E+04   -0.84008E-02   -0.21974E-02 13060   0.158E-01    0.395E-01
RMM:  20    -0.115837437607E+04   -0.22981E-02   -0.52192E-03 13177   0.753E-02    0.261E-01
RMM:  21    -0.115837673336E+04   -0.23573E-02   -0.30156E-03 12579   0.534E-02    0.206E-01
RMM:  22    -0.115838013259E+04   -0.33992E-02   -0.36285E-03 11734   0.611E-02    0.179E-01
RMM:  23    -0.115838226571E+04   -0.21331E-02   -0.18055E-03 11065   0.425E-02    0.175E-01
RMM:  24    -0.115838343023E+04   -0.11645E-02   -0.70875E-04  9653   0.255E-02    0.176E-01
RMM:  25    -0.115838159997E+04    0.18303E-02   -0.38465E-04  8820   0.276E-02    0.181E-01
RMM:  26    -0.115838310468E+04   -0.15047E-02   -0.22571E-04  8406   0.203E-02    0.181E-01
RMM:  27    -0.115838635596E+04   -0.32513E-02   -0.16062E-03  9889   0.447E-02    0.185E-01
RMM:  28    -0.115838774957E+04   -0.13936E-02   -0.68680E-04  8963   0.257E-02    0.187E-01
RMM:  29    -0.115838246917E+04    0.52804E-02   -0.26591E-03 10537   0.684E-02    0.177E-01
RMM:  30    -0.115836615381E+04    0.16315E-01   -0.38279E-02 11928   0.222E-01    0.209E-01
RMM:  31    -0.115836028190E+04    0.58719E-02   -0.19514E-02 11560   0.146E-01    0.256E-01
RMM:  32    -0.115835847882E+04    0.18031E-02   -0.40605E-03 11399   0.574E-02    0.302E-01
RMM:  33    -0.115835775492E+04    0.72390E-03   -0.16335E-03  9461   0.353E-02    0.294E-01
RMM:  34    -0.115835239344E+04    0.53615E-02   -0.70951E-03 10966   0.926E-02    0.333E-01
RMM:  35    -0.115836017305E+04   -0.77796E-02   -0.13744E-02 11335   0.150E-01    0.293E-01
RMM:  36    -0.115837066528E+04   -0.10492E-01   -0.34158E-02 11694   0.215E-01    0.253E-01
RMM:  37    -0.115838107855E+04   -0.10413E-01   -0.77156E-02 11919   0.307E-01    0.396E-01
RMM:  38    -0.115838491232E+04   -0.38338E-02   -0.82547E-02 12045   0.314E-01    0.594E-01
RMM:  39    -0.115838470122E+04    0.21110E-03   -0.12193E-02 12116   0.861E-02    0.604E-01
RMM:  40    -0.115839247093E+04   -0.77697E-02   -0.18007E-03  9594   0.544E-02
   1 F= -.11583925E+04 E0= -.11583921E+04  d E =-.115839E+04  mag=     4.0129
       N       E                     dE             d eps       ncg     rms          rms(c)
DAV:   1    -0.113012585301E+04    0.28259E+02   -0.30063E+03 12736   0.478E+01    0.539E+01
RMM:   2    -0.114148478158E+04   -0.11359E+02   -0.16348E+02 12309   0.101E+01    0.296E+01
RMM:   3    -0.114099273617E+04    0.49205E+00   -0.13167E+01 13325   0.376E+00    0.163E+01
RMM:   4    -0.114262120369E+04   -0.16285E+01   -0.72003E+00 14436   0.195E+00    0.117E+01
RMM:   5    -0.114124129495E+04    0.13799E+01   -0.30517E+00 13819   0.114E+00    0.463E+00
RMM:   6    -0.114121058217E+04    0.30713E-01   -0.42066E-01 14524   0.593E-01    0.328E+00
RMM:   7    -0.114138612448E+04   -0.17554E+00   -0.26083E-01 14845   0.331E-01    0.640E+00
RMM:   8    -0.114129686083E+04    0.89264E-01   -0.14254E-01 13695   0.274E-01    0.301E+00
RMM:   9    -0.114144151024E+04   -0.14465E+00   -0.84855E-02 13034   0.243E-01    0.434E+00
RMM:  10    -0.114148616153E+04   -0.44651E-01   -0.44177E-02 13611   0.167E-01    0.391E+00
RMM:  11    -0.114147856181E+04    0.75997E-02   -0.11375E-01 12512   0.251E-01    0.280E+00
RMM:  12    -0.114143238409E+04    0.46178E-01   -0.56885E-02 13411   0.211E-01    0.175E+00
RMM:  13    -0.114143016018E+04    0.22239E-02   -0.32212E-02 13135   0.171E-01    0.115E+00
RMM:  14    -0.114142923578E+04    0.92440E-03   -0.12710E-02 14312   0.854E-02    0.798E-01
RMM:  15    -0.114143396426E+04   -0.47285E-02   -0.10227E-02 12259   0.933E-02    0.619E-01
RMM:  16    -0.114143671628E+04   -0.27520E-02   -0.83770E-03 12621   0.867E-02    0.409E-01
RMM:  17    -0.114143976147E+04   -0.30452E-02   -0.27445E-03 11237   0.557E-02    0.685E-01
RMM:  18    -0.114143966086E+04    0.10061E-03   -0.16679E-03 11278   0.410E-02    0.308E-01
RMM:  19    -0.114144120463E+04   -0.15438E-02   -0.88046E-04 10159   0.298E-02    0.274E-01
RMM:  20    -0.114144349151E+04   -0.22869E-02   -0.17830E-03 10747   0.419E-02    0.151E-01
RMM:  21    -0.114144632306E+04   -0.28315E-02   -0.21855E-03 10406   0.461E-02    0.232E-01
RMM:  22    -0.114144824146E+04   -0.19184E-02   -0.13374E-03  9401   0.319E-02    0.308E-01
RMM:  23    -0.114144395478E+04    0.42867E-02   -0.20185E-03 10554   0.557E-02    0.270E-01
RMM:  24    -0.114144425718E+04   -0.30240E-03   -0.13630E-04  7594   0.117E-02    0.268E-01
RMM:  25    -0.114144260663E+04    0.16506E-02   -0.54162E-04  8262   0.241E-02    0.249E-01
RMM:  26    -0.114144133922E+04    0.12674E-02   -0.76552E-04  9547   0.279E-02    0.178E-01
RMM:  27    -0.114144375434E+04   -0.24151E-02   -0.83926E-04  9537   0.372E-02    0.256E-01
RMM:  28    -0.114144666362E+04   -0.29093E-02   -0.17456E-03 10287   0.461E-02    0.297E-01
RMM:  29    -0.114145002458E+04   -0.33610E-02   -0.28214E-03 10449   0.549E-02    0.302E-01
RMM:  30    -0.114145439833E+04   -0.43737E-02   -0.46125E-03 10658   0.679E-02    0.326E-01
RMM:  31    -0.114145641342E+04   -0.20151E-02   -0.21506E-03 10038   0.390E-02    0.329E-01
RMM:  32    -0.114145846870E+04   -0.20553E-02   -0.11525E-03  9337   0.304E-02    0.332E-01
RMM:  33    -0.114146050719E+04   -0.20385E-02   -0.11811E-03  9666   0.306E-02    0.330E-01
RMM:  34    -0.114146425870E+04   -0.37515E-02   -0.28598E-03 10484   0.523E-02    0.335E-01
RMM:  35    -0.114146428561E+04   -0.26907E-04   -0.39166E-04  8190   0.156E-02
   2 F= -.11414643E+04 E0= -.11414569E+04  d E =0.169282E+02  mag=     4.0002
       N       E                     dE             d eps       ncg     rms          rms(c)
DAV:   1    -0.112309770401E+04    0.18367E+02   -0.18805E+03 12456   0.222E+01    0.462E+01
RMM:   2    -0.116303985167E+04   -0.39942E+02   -0.42951E+02 16214   0.133E+01    0.556E+01
RMM:   3    -0.115964424901E+04    0.33956E+01   -0.41166E+01 13379   0.464E+00    0.409E+01
RMM:   4    -0.114906947875E+04    0.10575E+02   -0.73219E+00 13470   0.179E+00    0.268E+01
RMM:   5    -0.117129099229E+04   -0.22222E+02   -0.54264E+01 12322   0.560E+00    0.521E+01
RMM:   6    -0.115142504370E+04    0.19866E+02   -0.43844E+00 13310   0.181E+00    0.222E+01
RMM:   7    -0.114877141833E+04    0.26536E+01   -0.14582E+00 12740   0.111E+00    0.138E+01
RMM:   8    -0.114840832685E+04    0.36309E+00   -0.11193E+00 13608   0.891E-01    0.949E+00
RMM:   9    -0.114802688208E+04    0.38144E+00   -0.96956E-01 12472   0.859E-01    0.645E+00
RMM:  10    -0.114812907790E+04   -0.10220E+00   -0.50126E-01 13408   0.637E-01    0.454E+00
RMM:  11    -0.114828026547E+04   -0.15119E+00   -0.45468E-01 12639   0.586E-01    0.295E+00
RMM:  12    -0.114827063574E+04    0.96297E-02   -0.20706E-01 13097   0.428E-01    0.189E+00
RMM:  13    -0.114830222422E+04   -0.31588E-01   -0.80043E-02 13266   0.266E-01    0.146E+00
RMM:  14    -0.114831015066E+04   -0.79264E-02   -0.29240E-02 12724   0.169E-01    0.120E+00
RMM:  15    -0.114832704207E+04   -0.16891E-01   -0.11686E-02 13140   0.971E-02    0.920E-01
RMM:  16    -0.114833521224E+04   -0.81702E-02   -0.37103E-03 11686   0.544E-02    0.788E-01
RMM:  17    -0.114835018942E+04   -0.14977E-01   -0.15259E-02 12062   0.114E-01    0.523E-01
RMM:  18    -0.114835723432E+04   -0.70449E-02   -0.67811E-03 12023   0.715E-02    0.408E-01
RMM:  19    -0.114836145195E+04   -0.42176E-02   -0.26927E-03 11273   0.403E-02    0.372E-01
RMM:  20    -0.114836552180E+04   -0.40699E-02   -0.17147E-03 10433   0.333E-02    0.352E-01
RMM:  21    -0.114837192792E+04   -0.64061E-02   -0.33326E-03 10790   0.500E-02    0.365E-01
RMM:  22    -0.114837546600E+04   -0.35381E-02   -0.19368E-03 10626   0.355E-02    0.375E-01
RMM:  23    -0.114836599713E+04    0.94689E-02   -0.53965E-03 11019   0.661E-02    0.358E-01
RMM:  24    -0.114834856587E+04    0.17431E-01   -0.25563E-02 11915   0.140E-01    0.334E-01
RMM:  25    -0.114834509798E+04    0.34679E-02   -0.50038E-03 11313   0.615E-02    0.344E-01
RMM:  26    -0.114835504427E+04   -0.99463E-02   -0.59625E-03 10949   0.687E-02    0.328E-01
RMM:  27    -0.114837327275E+04   -0.18228E-01   -0.29935E-02 11932   0.150E-01    0.322E-01
RMM:  28    -0.114839183052E+04   -0.18558E-01   -0.41113E-02 12141   0.176E-01    0.381E-01
RMM:  29    -0.114840402079E+04   -0.12190E-01   -0.22790E-02 12295   0.123E-01    0.427E-01
RMM:  30    -0.114841072553E+04   -0.67047E-02   -0.71695E-03 11996   0.648E-02    0.427E-01
RMM:  31    -0.114841596068E+04   -0.52352E-02   -0.23886E-03 10933   0.389E-02    0.338E-01
RMM:  32    -0.114843547552E+04   -0.19515E-01   -0.34463E-02 11961   0.162E-01    0.473E-01
RMM:  33    -0.114844312802E+04   -0.76525E-02   -0.77930E-03 11758   0.819E-02    0.339E-01
RMM:  34    -0.114844644429E+04   -0.33163E-02   -0.45672E-03 11585   0.513E-02    0.226E-01
RMM:  35    -0.114845221233E+04   -0.57680E-02   -0.45922E-03 10933   0.580E-02    0.232E-01
RMM:  36    -0.114845107261E+04    0.11397E-02   -0.44559E-04  8856   0.200E-02    0.210E-01
RMM:  37    -0.114845983578E+04   -0.87632E-02   -0.10872E-02 11422   0.927E-02    0.249E-01
RMM:  38    -0.114846526158E+04   -0.54258E-02   -0.89582E-03 11476   0.864E-02    0.258E-01
RMM:  39    -0.114846730915E+04   -0.20476E-02   -0.19199E-03 10415   0.344E-02    0.230E-01
RMM:  40    -0.114846999053E+04   -0.26814E-02   -0.19241E-03 10006   0.365E-02
   3 F= -.11484700E+04 E0= -.11484700E+04  d E =-.700570E+01  mag=     3.9852
       N       E                     dE             d eps       ncg     rms          rms(c)
DAV:   1    -0.113460391147E+04    0.13863E+02   -0.16648E+03 12288   0.373E+01    0.237E+01
RMM:   2    -0.115545218971E+04   -0.20848E+02   -0.26969E+02 14478   0.113E+01    0.193E+01
RMM:   3    -0.115442233485E+04    0.10299E+01   -0.30622E+01 14303   0.437E+00    0.169E+01
RMM:   4    -0.115069129552E+04    0.37310E+01   -0.28698E+00 14450   0.133E+00    0.124E+01
RMM:   5    -0.115140773481E+04   -0.71644E+00   -0.11058E+01 12748   0.141E+00    0.163E+01
RMM:   6    -0.114933087099E+04    0.20769E+01   -0.12618E+00 13034   0.911E-01    0.890E+00
RMM:   7    -0.114898610063E+04    0.34477E+00   -0.81078E-01 13068   0.597E-01    0.529E+00
RMM:   8    -0.114884508612E+04    0.14101E+00   -0.82045E-01 13434   0.599E-01    0.619E+00
RMM:   9    -0.114877759292E+04    0.67493E-01   -0.20379E-01 12617   0.409E-01    0.191E+00
RMM:  10    -0.114879836864E+04   -0.20776E-01   -0.16143E-01 13458   0.293E-01    0.152E+00
RMM:  11    -0.114881085145E+04   -0.12483E-01   -0.26070E-02 12748   0.142E-01    0.145E+00
RMM:  12    -0.114886739306E+04   -0.56542E-01   -0.40744E-02 12584   0.168E-01    0.367E+00
RMM:  13    -0.114886035380E+04    0.70393E-02   -0.45666E-03 12611   0.967E-02    0.356E+00
RMM:  14    -0.114885186504E+04    0.84888E-02   -0.29457E-03 12674   0.488E-02    0.329E+00
RMM:  15    -0.114886159803E+04   -0.97330E-02   -0.14380E-03 10720   0.366E-02    0.364E+00
RMM:  16    -0.114885252517E+04    0.90729E-02   -0.38146E-03 12101   0.481E-02    0.340E+00
RMM:  17    -0.114884275394E+04    0.97712E-02   -0.41838E-03 12496   0.567E-02    0.319E+00
RMM:  18    -0.114884194330E+04    0.81064E-03   -0.38485E-04  9352   0.215E-02    0.314E+00
RMM:  19    -0.114885428871E+04   -0.12345E-01   -0.82183E-03 12402   0.769E-02    0.351E+00
RMM:  20    -0.114886401930E+04   -0.97306E-02   -0.23468E-03 11243   0.507E-02    0.398E+00
RMM:  21    -0.114886667613E+04   -0.26568E-02   -0.32184E-04  8799   0.249E-02    0.412E+00
RMM:  22    -0.114886160119E+04    0.50749E-02   -0.59934E-04  9999   0.248E-02    0.397E+00
RMM:  23    -0.114886114801E+04    0.45319E-03   -0.54967E-05  7424   0.103E-02    0.395E+00
RMM:  24    -0.114886556124E+04   -0.44132E-02   -0.51992E-03 11947   0.650E-02    0.412E+00
RMM:  25    -0.114880269169E+04    0.62870E-01   -0.25877E-02 12318   0.136E-01    0.234E+00
RMM:  26    -0.114880748564E+04   -0.47939E-02   -0.69235E-03 11756   0.919E-02    0.763E-01
RMM:  27    -0.114881557576E+04   -0.80901E-02   -0.69430E-03 12197   0.932E-02    0.850E-01
RMM:  28    -0.114881855142E+04   -0.29757E-02   -0.34572E-03 12317   0.625E-02    0.864E-01
RMM:  29    -0.114882090886E+04   -0.23574E-02   -0.73635E-03 12163   0.621E-02    0.571E-01
RMM:  30    -0.114882415241E+04   -0.32435E-02   -0.85341E-03 12789   0.764E-02    0.308E-01
RMM:  31    -0.114882853243E+04   -0.43800E-02   -0.23322E-03 10970   0.475E-02    0.504E-01
RMM:  32    -0.114883099219E+04   -0.24598E-02   -0.36059E-03 11505   0.580E-02    0.366E-01
RMM:  33    -0.114883432553E+04   -0.33333E-02   -0.46488E-03 11320   0.659E-02    0.285E-01
RMM:  34    -0.114883754515E+04   -0.32196E-02   -0.53802E-03 11465   0.670E-02    0.210E-01
RMM:  35    -0.114883945091E+04   -0.19058E-02   -0.34266E-03 10689   0.525E-02    0.163E-01
RMM:  36    -0.114884095132E+04   -0.15004E-02   -0.26348E-03 11299   0.437E-02    0.151E-01
RMM:  37    -0.114884190588E+04   -0.95456E-03   -0.30311E-03 11123   0.499E-02    0.167E-01
RMM:  38    -0.114884267929E+04   -0.77341E-03   -0.21024E-03  9733   0.413E-02    0.149E-01
RMM:  39    -0.114884309162E+04   -0.41233E-03   -0.16407E-03  9638   0.346E-02    0.187E-01
RMM:  40    -0.114884313941E+04   -0.47793E-04   -0.91361E-04  9089   0.252E-02
   4 F= -.11488431E+04 E0= -.11488314E+04  d E =-.373149E+00  mag=     1.7753
       N       E                     dE             d eps       ncg     rms          rms(c)
DAV:   1    -0.114982300415E+04   -0.97991E+00   -0.80528E+02 12440   0.172E+01    0.195E+01
RMM:   2    -0.115535318244E+04   -0.55302E+01   -0.79710E+01 12297   0.611E+00    0.201E+01
RMM:   3    -0.115536241678E+04   -0.92343E-02   -0.55723E+00 13433   0.155E+00    0.168E+01
RMM:   4    -0.115443363447E+04    0.92878E+00   -0.13295E+00 13606   0.838E-01    0.133E+01
RMM:   5    -0.115868855569E+04   -0.42549E+01   -0.57478E+00 12508   0.172E+00    0.348E+01
RMM:   6    -0.115474648972E+04    0.39421E+01   -0.88753E-01 12922   0.962E-01    0.724E+00
RMM:   7    -0.115431133428E+04    0.43516E+00   -0.89680E-01 13101   0.756E-01    0.326E+00
RMM:   8    -0.115428435239E+04    0.26982E-01   -0.18814E-01 12950   0.493E-01    0.204E+00
RMM:   9    -0.115427239743E+04    0.11955E-01   -0.76456E-02 13658   0.235E-01    0.123E+00
RMM:  10    -0.115426578359E+04    0.66138E-02   -0.16503E-02 13285   0.116E-01    0.899E-01
RMM:  11    -0.115426300906E+04    0.27745E-02   -0.73040E-03 12952   0.724E-02    0.766E-01
RMM:  12    -0.115425897339E+04    0.40357E-02   -0.13500E-03 11680   0.344E-02    0.683E-01
RMM:  13    -0.115425723799E+04    0.17354E-02   -0.47547E-04 10005   0.207E-02    0.630E-01
RMM:  14    -0.115425504477E+04    0.21932E-02   -0.79741E-04 10741   0.249E-02    0.555E-01
RMM:  15    -0.115425296771E+04    0.20771E-02   -0.82222E-04 10706   0.266E-02    0.468E-01
RMM:  16    -0.115425165051E+04    0.13172E-02   -0.10691E-03 11018   0.278E-02    0.387E-01
RMM:  17    -0.115424980892E+04    0.18416E-02   -0.19334E-03 11893   0.384E-02    0.254E-01
RMM:  18    -0.115424925305E+04    0.55586E-03   -0.98956E-04 10845   0.272E-02    0.182E-01
RMM:  19    -0.115424911847E+04    0.13459E-03   -0.29534E-04  8464   0.178E-02    0.151E-01
RMM:  20    -0.115424908694E+04    0.31530E-04   -0.12838E-04  7802   0.119E-02
   5 F= -.11542491E+04 E0= -.11542491E+04  d E =-.540595E+01  mag=     2.0021
       N       E                     dE             d eps       ncg     rms          rms(c)
DAV:   1    -0.115540591682E+04   -0.11568E+01   -0.53284E+02 12472   0.228E+01    0.910E+00
RMM:   2    -0.115743260502E+04   -0.20267E+01   -0.27777E+01 12296   0.565E+00    0.102E+01
RMM:   3    -0.115734932727E+04    0.83278E-01   -0.11025E+00 13678   0.137E+00    0.815E+00
RMM:   4    -0.115731874639E+04    0.30581E-01   -0.70671E-01 13091   0.696E-01    0.454E+00
RMM:   5    -0.115720250833E+04    0.11624E+00   -0.25463E-01 12803   0.453E-01    0.110E+00
RMM:   6    -0.115719581285E+04    0.66955E-02   -0.44219E-02 14182   0.193E-01    0.662E-01
RMM:   7    -0.115719291392E+04    0.28989E-02   -0.95605E-03 15322   0.751E-02    0.341E-01
RMM:   8    -0.115719421157E+04   -0.12976E-02   -0.38243E-03 13073   0.554E-02    0.154E-01
RMM:   9    -0.115719515853E+04   -0.94696E-03   -0.96493E-04 11556   0.311E-02    0.104E-01
RMM:  10    -0.115719581923E+04   -0.66070E-03   -0.36775E-04  9148   0.186E-02    0.815E-02
RMM:  11    -0.115719657786E+04   -0.75863E-03   -0.39607E-04  8986   0.187E-02    0.638E-02
RMM:  12    -0.115719737688E+04   -0.79902E-03   -0.70375E-04  9281   0.234E-02    0.438E-02
RMM:  13    -0.115719771243E+04   -0.33555E-03   -0.49413E-04  8924   0.196E-02    0.257E-02
RMM:  14    -0.115719781406E+04   -0.10163E-03   -0.22200E-04  8268   0.142E-02    0.150E-02
RMM:  15    -0.115719784372E+04   -0.29659E-04   -0.81910E-05  7566   0.962E-03
   6 F= -.11571978E+04 E0= -.11571978E+04  d E =-.294876E+01  mag=     2.0000
       N       E                     dE             d eps       ncg     rms          rms(c)
DAV:   1    -0.115854737718E+04   -0.13496E+01   -0.20859E+02 12480   0.133E+01    0.507E+00
RMM:   2    -0.115898580633E+04   -0.43843E+00   -0.60311E+00 12309   0.252E+00    0.371E+00
RMM:   3    -0.115894154128E+04    0.44265E-01   -0.38286E-01 12589   0.904E-01    0.223E+00
RMM:   4    -0.115890097819E+04    0.40563E-01   -0.17508E-01 13322   0.399E-01    0.109E+00
RMM:   5    -0.115890016237E+04    0.81582E-03   -0.24829E-02 14186   0.203E-01    0.520E-01
RMM:   6    -0.115890072025E+04   -0.55788E-03   -0.66633E-03 17651   0.618E-02    0.330E-01
RMM:   7    -0.115890127143E+04   -0.55118E-03   -0.23273E-03 15206   0.401E-02    0.138E-01
RMM:   8    -0.115890158358E+04   -0.31214E-03   -0.74927E-04 12027   0.247E-02    0.593E-02
RMM:   9    -0.115890171021E+04   -0.12664E-03   -0.29277E-04  9431   0.158E-02    0.461E-02
RMM:  10    -0.115890184894E+04   -0.13873E-03   -0.17602E-04  8679   0.131E-02    0.371E-02
RMM:  11    -0.115890204569E+04   -0.19675E-03   -0.18936E-04  8483   0.132E-02    0.275E-02
RMM:  12    -0.115890214555E+04   -0.99860E-04   -0.12064E-04  8099   0.107E-02
   7 F= -.11589021E+04 E0= -.11589021E+04  d E =-.170430E+01  mag=     2.0000
       N       E                     dE             d eps       ncg     rms          rms(c)
DAV:   1    -0.115945593330E+04   -0.55389E+00   -0.17528E+02 12480   0.115E+01    0.419E+00
RMM:   2    -0.115990863189E+04   -0.45270E+00   -0.52427E+00 12316   0.217E+00    0.309E+00
RMM:   3    -0.115990948350E+04   -0.85161E-03   -0.29118E-01 12693   0.742E-01    0.184E+00
RMM:   4    -0.115989536380E+04    0.14120E-01   -0.11882E-01 13741   0.280E-01    0.855E-01
RMM:   5    -0.115989423863E+04    0.11252E-02   -0.18995E-02 13975   0.139E-01    0.301E-01
RMM:   6    -0.115989475962E+04   -0.52099E-03   -0.38804E-03 15852   0.501E-02    0.188E-01
RMM:   7    -0.115989523832E+04   -0.47869E-03   -0.13347E-03 13633   0.293E-02    0.116E-01
RMM:   8    -0.115989558225E+04   -0.34393E-03   -0.52629E-04 10367   0.222E-02    0.580E-02
RMM:   9    -0.115989578844E+04   -0.20619E-03   -0.24263E-04  8853   0.155E-02    0.444E-02
RMM:  10    -0.115989592123E+04   -0.13279E-03   -0.13139E-04  8210   0.126E-02    0.376E-02
RMM:  11    -0.115989614929E+04   -0.22806E-03   -0.21908E-04  8236   0.146E-02    0.270E-02
RMM:  12    -0.115989625638E+04   -0.10709E-03   -0.13150E-04  7860   0.110E-02    0.208E-02
RMM:  13    -0.115989632306E+04   -0.66674E-04   -0.89691E-05  7644   0.100E-02
   8 F= -.11598963E+04 E0= -.11598963E+04  d E =-.994178E+00  mag=     2.0000
       N       E                     dE             d eps       ncg     rms          rms(c)
DAV:   1    -0.116038087591E+04   -0.48462E+00   -0.12643E+02 12512   0.941E+00    0.366E+00
RMM:   2    -0.116070786035E+04   -0.32698E+00   -0.36419E+00 12305   0.180E+00    0.254E+00
RMM:   3    -0.116070954369E+04   -0.16833E-02   -0.21236E-01 12515   0.630E-01    0.148E+00
RMM:   4    -0.116069933587E+04    0.10208E-01   -0.87211E-02 13606   0.240E-01    0.851E-01
RMM:   5    -0.116069752329E+04    0.18126E-02   -0.12064E-02 14187   0.115E-01    0.327E-01
RMM:   6    -0.116069771775E+04   -0.19447E-03   -0.40357E-03 15023   0.472E-02    0.193E-01
RMM:   7    -0.116069775421E+04   -0.36455E-04   -0.10279E-03 12603   0.265E-02    0.107E-01
RMM:   8    -0.116069786330E+04   -0.10909E-03   -0.31776E-04  9602   0.194E-02    0.456E-02
RMM:   9    -0.116069791165E+04   -0.48352E-04   -0.16527E-04  8445   0.136E-02
   9 F= -.11606979E+04 E0= -.11606979E+04  d E =-.801589E+00  mag=     2.0000
       N       E                     dE             d eps       ncg     rms          rms(c)
DAV:   1    -0.116102701844E+04   -0.32916E+00   -0.40086E+01 12648   0.548E+00    0.212E+00
RMM:   2    -0.116112111208E+04   -0.94094E-01   -0.10206E+00 12297   0.997E-01    0.135E+00
RMM:   3    -0.116112422640E+04   -0.31143E-02   -0.65282E-02 12608   0.343E-01    0.770E-01
RMM:   4    -0.116112135030E+04    0.28761E-02   -0.21069E-02 13682   0.129E-01    0.378E-01
RMM:   5    -0.116112144513E+04   -0.94826E-04   -0.37402E-03 13552   0.606E-02    0.164E-01
RMM:   6    -0.116112155089E+04   -0.10576E-03   -0.86925E-04 11720   0.235E-02    0.985E-02
RMM:   7    -0.116112163618E+04   -0.85292E-04   -0.27862E-04  9223   0.170E-02    0.558E-02
RMM:   8    -0.116112172697E+04   -0.90785E-04   -0.15069E-04  8068   0.132E-02
  10 F= -.11611217E+04 E0= -.11611217E+04  d E =-.423815E+00  mag=     2.0000
       N       E                     dE             d eps       ncg     rms          rms(c)
DAV:   1    -0.116126625795E+04   -0.14462E+00   -0.12221E+02 12392   0.968E+00    0.420E+00
RMM:   2    -0.116165107352E+04   -0.38482E+00   -0.38826E+00 12324   0.196E+00    0.289E+00
RMM:   3    -0.116165813222E+04   -0.70587E-02   -0.24425E-01 12960   0.688E-01    0.173E+00
RMM:   4    -0.116165088915E+04    0.72431E-02   -0.77753E-02 13561   0.266E-01    0.942E-01
RMM:   5    -0.116165191734E+04   -0.10282E-02   -0.16765E-02 15053   0.130E-01    0.370E-01
RMM:   6    -0.116165323757E+04   -0.13202E-02   -0.71016E-03 15906   0.607E-02    0.249E-01
RMM:   7    -0.116165355894E+04   -0.32137E-03   -0.15918E-03 13414   0.347E-02    0.163E-01
RMM:   8    -0.116165420654E+04   -0.64760E-03   -0.89839E-04 11614   0.268E-02    0.110E-01
RMM:   9    -0.116165464138E+04   -0.43484E-03   -0.49989E-04 10222   0.213E-02    0.680E-02
RMM:  10    -0.116165485126E+04   -0.20988E-03   -0.29460E-04  9219   0.157E-02    0.553E-02
RMM:  11    -0.116165519918E+04   -0.34791E-03   -0.39310E-04  9099   0.197E-02    0.431E-02
RMM:  12    -0.116165544913E+04   -0.24995E-03   -0.33871E-04  8602   0.181E-02    0.352E-02
RMM:  13    -0.116165557954E+04   -0.13041E-03   -0.16386E-04  7767   0.129E-02    0.328E-02
RMM:  14    -0.116165570744E+04   -0.12790E-03   -0.13859E-04  7614   0.117E-02    0.315E-02
RMM:  15    -0.116165579165E+04   -0.84214E-04   -0.77260E-05  7180   0.882E-03
  11 F= -.11616558E+04 E0= -.11616517E+04  d E =-.534065E+00  mag=     2.0480
       N       E                     dE             d eps       ncg     rms          rms(c)
DAV:   1    -0.116169930416E+04   -0.43597E-01   -0.36460E+01 12760   0.681E+00    0.248E+00
RMM:   2    -0.116179909680E+04   -0.99793E-01   -0.10649E+00 12325   0.129E+00    0.215E+00
RMM:   3    -0.116179845220E+04    0.64460E-03   -0.77282E-02 13431   0.431E-01    0.147E+00
RMM:   4    -0.116179791643E+04    0.53578E-03   -0.29147E-02 13942   0.177E-01    0.124E+00
RMM:   5    -0.116179834231E+04   -0.42588E-03   -0.16161E-02 14020   0.128E-01    0.406E-01
RMM:   6    -0.116179794121E+04    0.40109E-03   -0.40346E-03 13747   0.654E-02    0.205E-01
RMM:   7    -0.116179824278E+04   -0.30157E-03   -0.14518E-03 13214   0.335E-02    0.119E-01
RMM:   8    -0.116179869552E+04   -0.45274E-03   -0.38870E-04  9665   0.224E-02    0.110E-01
RMM:   9    -0.116179931140E+04   -0.61587E-03   -0.47260E-04  9805   0.237E-02    0.121E-01
RMM:  10    -0.116179940245E+04   -0.91056E-04   -0.16379E-04  8366   0.147E-02
  12 F= -.11617994E+04 E0= -.11617894E+04  d E =-.143611E+00  mag=     2.0516
       N       E                     dE             d eps       ncg     rms          rms(c)
DAV:   1    -0.116184031696E+04   -0.41006E-01   -0.71700E+00 13152   0.308E+00    0.893E-01
RMM:   2    -0.116185757480E+04   -0.17258E-01   -0.19684E-01 12351   0.563E-01    0.725E-01
RMM:   3    -0.116185744127E+04    0.13353E-03   -0.13498E-02 13001   0.194E-01    0.465E-01
RMM:   4    -0.116185804653E+04   -0.60526E-03   -0.55706E-03 14084   0.771E-02    0.433E-01
RMM:   5    -0.116185800490E+04    0.41628E-04   -0.28550E-03 12985   0.558E-02    0.149E-01
RMM:   6    -0.116185821220E+04   -0.20730E-03   -0.75748E-04 11222   0.304E-02    0.822E-02
RMM:   7    -0.116185836683E+04   -0.15463E-03   -0.27417E-04  8844   0.171E-02    0.611E-02
RMM:   8    -0.116185853938E+04   -0.17255E-03   -0.14981E-04  7996   0.148E-02    0.465E-02
RMM:   9    -0.116185870701E+04   -0.16763E-03   -0.13161E-04  7718   0.128E-02    0.463E-02
RMM:  10    -0.116185876146E+04   -0.54457E-04   -0.53928E-05  7259   0.834E-03
  13 F= -.11618588E+04 E0= -.11618487E+04  d E =-.593590E-01  mag=     2.0093
       N       E                     dE             d eps       ncg     rms          rms(c)
DAV:   1    -0.116189180921E+04   -0.33102E-01   -0.74593E+00 12936   0.318E+00    0.958E-01
RMM:   2    -0.116191380664E+04   -0.21997E-01   -0.22096E-01 12334   0.606E-01    0.846E-01
RMM:   3    -0.116191330175E+04    0.50489E-03   -0.14568E-02 12821   0.206E-01    0.578E-01
RMM:   4    -0.116191525576E+04   -0.19540E-02   -0.72794E-03 13999   0.890E-02    0.467E-01
RMM:   5    -0.116192091601E+04   -0.56602E-02   -0.47170E-03 13314   0.714E-02    0.687E-01
RMM:   6    -0.116192095773E+04   -0.41723E-04   -0.44620E-04 10110   0.259E-02    0.691E-01
RMM:   7    -0.116192008759E+04    0.87014E-03   -0.24932E-04  8853   0.153E-02    0.635E-01
RMM:   8    -0.116191720078E+04    0.28868E-02   -0.88826E-04 10575   0.288E-02    0.460E-01
RMM:   9    -0.116191587653E+04    0.13242E-02   -0.95091E-04 10647   0.301E-02    0.476E-01
RMM:  10    -0.116191549967E+04    0.37686E-03   -0.19661E-04  8453   0.172E-02    0.483E-01
RMM:  11    -0.116191520928E+04    0.29038E-03   -0.10121E-04  7717   0.123E-02    0.472E-01
RMM:  12    -0.116191509701E+04    0.11227E-03   -0.41914E-05  7315   0.934E-03    0.465E-01
RMM:  13    -0.116191503559E+04    0.61426E-04   -0.26210E-05  7080   0.673E-03
  14 F= -.11619150E+04 E0= -.11619045E+04  d E =-.562741E-01  mag=     2.0769
       N       E                     dE             d eps       ncg     rms          rms(c)
DAV:   1    -0.116191362314E+04    0.14739E-02   -0.33326E+01 12544   0.604E+00    0.230E+00
RMM:   2    -0.116208717278E+04   -0.17355E+00   -0.10063E+00 12300   0.116E+00    0.288E+00
RMM:   3    -0.116212263843E+04   -0.35466E-01   -0.71583E-02 13202   0.332E-01    0.274E+00
RMM:   4    -0.116214279975E+04   -0.20161E-01   -0.33602E-02 13522   0.138E-01    0.256E+00
RMM:   5    -0.116216196025E+04   -0.19161E-01   -0.29327E-01 12289   0.355E-01    0.101E+00
RMM:   6    -0.116217085463E+04   -0.88944E-02   -0.39454E-02 12773   0.200E-01    0.597E-01
RMM:   7    -0.116217326299E+04   -0.24084E-02   -0.11739E-02 14907   0.893E-02    0.440E-01
RMM:   8    -0.116217406777E+04   -0.80478E-03   -0.62418E-03 12306   0.595E-02    0.318E-01
RMM:   9    -0.116217457455E+04   -0.50678E-03   -0.13052E-03 11014   0.373E-02    0.212E-01
RMM:  10    -0.116217508261E+04   -0.50806E-03   -0.17285E-03 12314   0.340E-02    0.954E-02
RMM:  11    -0.116217540267E+04   -0.32006E-03   -0.55509E-04 10183   0.249E-02    0.573E-02
RMM:  12    -0.116217555512E+04   -0.15245E-03   -0.15565E-04  7894   0.150E-02    0.491E-02
RMM:  13    -0.116217577023E+04   -0.21511E-03   -0.19176E-04  7919   0.140E-02    0.408E-02
RMM:  14    -0.116217590886E+04   -0.13863E-03   -0.12116E-04  7561   0.110E-02    0.373E-02
RMM:  15    -0.116217606023E+04   -0.15136E-03   -0.12131E-04  7471   0.114E-02    0.374E-02
RMM:  16    -0.116217618290E+04   -0.12267E-03   -0.94499E-05  7106   0.908E-03    0.351E-02
RMM:  17    -0.116217639213E+04   -0.20923E-03   -0.19506E-04  7395   0.133E-02    0.345E-02
RMM:  18    -0.116217675095E+04   -0.35882E-03   -0.65185E-04  8245   0.243E-02    0.323E-02
RMM:  19    -0.116217715972E+04   -0.40877E-03   -0.11238E-03  8849   0.321E-02    0.302E-02
RMM:  20    -0.116217769028E+04   -0.53056E-03   -0.28476E-03  9807   0.534E-02    0.306E-02
RMM:  21    -0.116217795518E+04   -0.26490E-03   -0.63701E-04  8345   0.218E-02    0.261E-02
RMM:  22    -0.116217808248E+04   -0.12730E-03   -0.18924E-04  7185   0.138E-02    0.248E-02
RMM:  23    -0.116217810791E+04   -0.25432E-04   -0.46449E-05  6527   0.731E-03
  15 F= -.11621781E+04 E0= -.11621725E+04  d E =-.263072E+00  mag=     3.9541
       N       E                     dE             d eps       ncg     rms          rms(c)
DAV:   1    -0.116224027958E+04   -0.62197E-01   -0.11319E+01 12768   0.344E+00    0.189E+00
RMM:   2    -0.116227516530E+04   -0.34886E-01   -0.41175E-01 12292   0.722E-01    0.176E+00
RMM:   3    -0.116227104449E+04    0.41208E-02   -0.24541E-02 13172   0.193E-01    0.121E+00
RMM:   4    -0.116227128460E+04   -0.24011E-03   -0.15887E-02 12631   0.124E-01    0.479E-01
RMM:   5    -0.116226979367E+04    0.14909E-02   -0.33292E-03 12540   0.571E-02    0.147E-01
RMM:   6    -0.116226983104E+04   -0.37366E-04   -0.56233E-04 10841   0.221E-02    0.943E-02
RMM:   7    -0.116226991727E+04   -0.86237E-04   -0.15760E-04  8223   0.152E-02    0.563E-02
RMM:   8    -0.116227005014E+04   -0.13287E-03   -0.14473E-04  7835   0.126E-02    0.343E-02
RMM:   9    -0.116227008976E+04   -0.39616E-04   -0.43546E-05  7246   0.792E-03
  16 F= -.11622701E+04 E0= -.11622682E+04  d E =-.919818E-01  mag=     3.9794
       N       E                     dE             d eps       ncg     rms          rms(c)
DAV:   1    -0.116200980187E+04    0.26025E+00   -0.74805E+01 12576   0.937E+00    0.364E+00
RMM:   2    -0.116222101474E+04   -0.21121E+00   -0.24315E+00 12308   0.188E+00    0.391E+00
RMM:   3    -0.116220600323E+04    0.15012E-01   -0.14180E-01 13866   0.549E-01    0.317E+00
RMM:   4    -0.116220448303E+04    0.15202E-02   -0.69978E-02 13840   0.263E-01    0.156E+00
RMM:   5    -0.116219376704E+04    0.10716E-01   -0.22495E-02 13884   0.151E-01    0.394E-01
RMM:   6    -0.116219260484E+04    0.11622E-02   -0.39973E-03 15115   0.625E-02    0.205E-01
RMM:   7    -0.116219250635E+04    0.98492E-04   -0.13381E-03 13991   0.326E-02    0.108E-01
RMM:   8    -0.116219266033E+04   -0.15399E-03   -0.54111E-04 10701   0.250E-02    0.572E-02
RMM:   9    -0.116219282651E+04   -0.16617E-03   -0.23061E-04  8384   0.179E-02    0.473E-02
RMM:  10    -0.116219296098E+04   -0.13447E-03   -0.12331E-04  7701   0.128E-02    0.451E-02
RMM:  11    -0.116219311325E+04   -0.15227E-03   -0.10802E-04  7545   0.120E-02    0.440E-02
RMM:  12    -0.116219330337E+04   -0.19012E-03   -0.12605E-04  7418   0.116E-02    0.423E-02
RMM:  13    -0.116219369294E+04   -0.38956E-03   -0.43352E-04  7996   0.205E-02    0.405E-02
RMM:  14    -0.116219417779E+04   -0.48486E-03   -0.87497E-04  8606   0.286E-02    0.379E-02
RMM:  15    -0.116219501168E+04   -0.83389E-03   -0.40257E-03 10132   0.654E-02    0.366E-02
RMM:  16    -0.116219544721E+04   -0.43553E-03   -0.11117E-03  8826   0.285E-02    0.330E-02
RMM:  17    -0.116219559415E+04   -0.14694E-03   -0.23091E-04  7446   0.145E-02    0.313E-02
RMM:  18    -0.116219563837E+04   -0.44221E-04   -0.55891E-05  6710   0.849E-03
  17 F= -.11621956E+04 E0= -.11621936E+04  d E =0.744514E-01  mag=     3.9796
       N       E                     dE             d eps       ncg     rms          rms(c)
DAV:   1    -0.116232540722E+04   -0.12981E+00   -0.20978E+01 12776   0.477E+00    0.282E+00
RMM:   2    -0.116239102698E+04   -0.65620E-01   -0.81494E-01 12294   0.101E+00    0.280E+00
RMM:   3    -0.116237788579E+04    0.13141E-01   -0.45197E-02 13462   0.263E-01    0.201E+00
RMM:   4    -0.116238012635E+04   -0.22406E-02   -0.35227E-02 13070   0.180E-01    0.730E-01
RMM:   5    -0.116237529807E+04    0.48283E-02   -0.76030E-03 13643   0.842E-02    0.211E-01
RMM:   6    -0.116237527480E+04    0.23271E-04   -0.10687E-03 12199   0.300E-02    0.126E-01
RMM:   7    -0.116237536936E+04   -0.94561E-04   -0.30952E-04  9311   0.187E-02    0.696E-02
RMM:   8    -0.116237549290E+04   -0.12354E-03   -0.18971E-04  8222   0.148E-02    0.360E-02
RMM:   9    -0.116237553594E+04   -0.43044E-04   -0.64490E-05  7501   0.102E-02
  18 F= -.11623755E+04 E0= -.11623745E+04  d E =-.179898E+00  mag=     3.9896
       N       E                     dE             d eps       ncg     rms          rms(c)
DAV:   1    -0.116238034675E+04   -0.48539E-02   -0.10058E+01 12800   0.368E+00    0.110E+00
RMM:   2    -0.116239540599E+04   -0.15059E-01   -0.31722E-01 12291   0.723E-01    0.109E+00
RMM:   3    -0.116239262949E+04    0.27765E-02   -0.17378E-02 13067   0.224E-01    0.727E-01
RMM:   4    -0.116239105580E+04    0.15737E-02   -0.95380E-03 13657   0.978E-02    0.418E-01
RMM:   5    -0.116238995462E+04    0.11012E-02   -0.29933E-03 12814   0.607E-02    0.124E-01
RMM:   6    -0.116238999036E+04   -0.35741E-04   -0.50438E-04 10809   0.228E-02    0.902E-02
RMM:   7    -0.116239005673E+04   -0.66369E-04   -0.14971E-04  8262   0.156E-02    0.582E-02
RMM:   8    -0.116239020878E+04   -0.15205E-03   -0.15840E-04  7863   0.139E-02    0.390E-02
RMM:   9    -0.116239025174E+04   -0.42959E-04   -0.47169E-05  7342   0.919E-03
  19 F= -.11623903E+04 E0= -.11623902E+04  d E =-.147158E-01  mag=     3.9992
       N       E                     dE             d eps       ncg     rms          rms(c)
DAV:   1    -0.116240490820E+04   -0.14699E-01   -0.24149E+00 13200   0.178E+00    0.515E-01
RMM:   2    -0.116240705916E+04   -0.21510E-02   -0.82472E-02 12295   0.365E-01    0.593E-01
RMM:   3    -0.116240607457E+04    0.98459E-03   -0.40206E-03 12823   0.105E-01    0.415E-01
RMM:   4    -0.116240532124E+04    0.75333E-03   -0.29397E-03 12373   0.546E-02    0.243E-01
RMM:   5    -0.116240501949E+04    0.30175E-03   -0.92196E-04 10793   0.387E-02    0.728E-02
RMM:   6    -0.116240505645E+04   -0.36960E-04   -0.12960E-04  8282   0.148E-02    0.553E-02
RMM:   7    -0.116240512536E+04   -0.68906E-04   -0.74320E-05  7581   0.109E-02    0.428E-02
RMM:   8    -0.116240521325E+04   -0.87894E-04   -0.73574E-05  7260   0.106E-02
  20 F= -.11624052E+04 E0= -.11624052E+04  d E =-.149615E-01  mag=     3.9998
       N       E                     dE             d eps       ncg     rms          rms(c)
DAV:   1    -0.116240193534E+04    0.31900E-02   -0.54915E+00 12848   0.270E+00    0.581E-01
RMM:   2    -0.116241418736E+04   -0.12252E-01   -0.13695E-01 12456   0.455E-01    0.395E-01
RMM:   3    -0.116241419531E+04   -0.79532E-05   -0.73646E-03 12725   0.163E-01    0.253E-01
RMM:   4    -0.116241401247E+04    0.18284E-03   -0.23693E-03 14852   0.519E-02    0.136E-01
RMM:   5    -0.116241405066E+04   -0.38192E-04   -0.60216E-04 11364   0.248E-02    0.500E-02
RMM:   6    -0.116241410764E+04   -0.56980E-04   -0.11657E-04  7606   0.144E-02    0.398E-02
RMM:   7    -0.116241418120E+04   -0.73558E-04   -0.81417E-05  7369   0.111E-02    0.343E-02
RMM:   8    -0.116241427813E+04   -0.96931E-04   -0.79497E-05  7231   0.106E-02
  21 F= -.11624143E+04 E0= -.11624143E+04  d E =-.906488E-02  mag=     3.9999
       N       E                     dE             d eps       ncg     rms          rms(c)
DAV:   1    -0.116241561035E+04   -0.14292E-02   -0.69607E-01 13072   0.955E-01    0.216E-01
RMM:   2    -0.116241704756E+04   -0.14372E-02   -0.19068E-02 12322   0.173E-01    0.194E-01
RMM:   3    -0.116241701540E+04    0.32159E-04   -0.10286E-03 11965   0.571E-02    0.133E-01
RMM:   4    -0.116241701560E+04   -0.20467E-06   -0.43678E-04 10194   0.233E-02    0.899E-02
RMM:   5    -0.116241704686E+04   -0.31255E-04   -0.14885E-04  7928   0.174E-02    0.360E-02
RMM:   6    -0.116241709724E+04   -0.50378E-04   -0.60202E-05  7146   0.967E-03    0.330E-02
RMM:   7    -0.116241713041E+04   -0.33168E-04   -0.28246E-05  6937   0.712E-03    0.309E-02
RMM:   8    -0.116241719667E+04   -0.66262E-04   -0.36440E-05  6872   0.728E-03
  22 F= -.11624172E+04 E0= -.11624172E+04  d E =-.291853E-02  mag=     4.0000
       N       E                     dE             d eps       ncg     rms          rms(c)
DAV:   1    -0.116238320567E+04    0.33925E-01   -0.18538E+01 12736   0.493E+00    0.938E-01
RMM:   2    -0.116242529706E+04   -0.42091E-01   -0.45287E-01 12457   0.821E-01    0.618E-01
RMM:   3    -0.116242550026E+04   -0.20321E-03   -0.23716E-02 12837   0.291E-01    0.409E-01
RMM:   4    -0.116242480874E+04    0.69152E-03   -0.66644E-03 16077   0.888E-02    0.227E-01
RMM:   5    -0.116242486626E+04   -0.57526E-04   -0.15821E-03 14719   0.363E-02    0.705E-02
RMM:   6    -0.116242495286E+04   -0.86597E-04   -0.33467E-04  9652   0.206E-02    0.443E-02
RMM:   7    -0.116242504242E+04   -0.89557E-04   -0.20525E-04  8357   0.141E-02    0.382E-02
RMM:   8    -0.116242511881E+04   -0.76393E-04   -0.12443E-04  7679   0.123E-02
  23 F= -.11624251E+04 E0= -.11624251E+04  d E =-.792214E-02  mag=     4.0000
       N       E                     dE             d eps       ncg     rms          rms(c)
DAV:   1    -0.116241418897E+04    0.10853E-01   -0.59273E+00 12808   0.277E+00    0.511E-01
RMM:   2    -0.116242736787E+04   -0.13179E-01   -0.14274E-01 12481   0.456E-01    0.332E-01
RMM:   3    -0.116242735118E+04    0.16684E-04   -0.74611E-03 12711   0.162E-01    0.218E-01
RMM:   4    -0.116242718059E+04    0.17059E-03   -0.22950E-03 15133   0.514E-02    0.118E-01
RMM:   5    -0.116242724810E+04   -0.67504E-04   -0.52029E-04 11021   0.230E-02    0.463E-02
RMM:   6    -0.116242730783E+04   -0.59736E-04   -0.13209E-04  7816   0.144E-02    0.357E-02
RMM:   7    -0.116242736696E+04   -0.59125E-04   -0.90322E-05  7461   0.114E-02    0.331E-02
RMM:   8    -0.116242744714E+04   -0.80184E-04   -0.79730E-05  7300   0.106E-02
  24 F= -.11624274E+04 E0= -.11624274E+04  d E =-.232833E-02  mag=     4.0000
       N       E                     dE             d eps       ncg     rms          rms(c)
DAV:   1    -0.116242581355E+04    0.15534E-02   -0.15959E+00 12944   0.143E+00    0.243E-01
RMM:   2    -0.116242938768E+04   -0.35741E-02   -0.38099E-02 12491   0.235E-01    0.164E-01
RMM:   3    -0.116242939609E+04   -0.84088E-05   -0.19655E-03 12328   0.821E-02    0.111E-01
RMM:   4    -0.116242939430E+04    0.17891E-05   -0.58794E-04 11000   0.272E-02    0.612E-02
RMM:   5    -0.116242945073E+04   -0.56433E-04   -0.14310E-04  7532   0.169E-02    0.306E-02
RMM:   6    -0.116242949416E+04   -0.43426E-04   -0.60624E-05  7127   0.101E-02    0.281E-02
RMM:   7    -0.116242953329E+04   -0.39133E-04   -0.40750E-05  6982   0.889E-03    0.272E-02
RMM:   8    -0.116242961247E+04   -0.79173E-04   -0.60041E-05  6922   0.898E-03
  25 F= -.11624296E+04 E0= -.11624296E+04  d E =-.216533E-02  mag=     4.0000
       N       E                     dE             d eps       ncg     rms          rms(c)
DAV:   1    -0.116242766511E+04    0.18682E-02   -0.16338E+00 12760   0.144E+00    0.243E-01
RMM:   2    -0.116243130421E+04   -0.36391E-02   -0.38573E-02 12510   0.235E-01    0.160E-01
RMM:   3    -0.116243130679E+04   -0.25847E-05   -0.19664E-03 12202   0.817E-02    0.108E-01
RMM:   4    -0.116243128433E+04    0.22461E-04   -0.56586E-04 10843   0.267E-02    0.569E-02
RMM:   5    -0.116243133454E+04   -0.50208E-04   -0.12608E-04  7384   0.162E-02    0.286E-02
RMM:   6    -0.116243137412E+04   -0.39579E-04   -0.56485E-05  7106   0.973E-03    0.259E-02
RMM:   7    -0.116243140956E+04   -0.35442E-04   -0.36311E-05  6931   0.840E-03    0.250E-02
RMM:   8    -0.116243148485E+04   -0.75286E-04   -0.60599E-05  6901   0.911E-03
  26 F= -.11624315E+04 E0= -.11624315E+04  d E =-.187238E-02  mag=     4.0000
       N       E                     dE             d eps       ncg     rms          rms(c)
DAV:   1    -0.116242933595E+04    0.20736E-02   -0.19305E+00 12792   0.156E+00    0.260E-01
RMM:   2    -0.116243360861E+04   -0.42727E-02   -0.45224E-02 12487   0.255E-01    0.171E-01
RMM:   3    -0.116243360647E+04    0.21430E-05   -0.22923E-03 12274   0.882E-02    0.115E-01
RMM:   4    -0.116243356356E+04    0.42908E-04   -0.65994E-04 11463   0.286E-02    0.607E-02
RMM:   5    -0.116243360613E+04   -0.42563E-04   -0.13112E-04  7467   0.164E-02    0.285E-02
RMM:   6    -0.116243364277E+04   -0.36644E-04   -0.57813E-05  7125   0.994E-03    0.247E-02
RMM:   7    -0.116243367006E+04   -0.27287E-04   -0.34397E-05  6957   0.853E-03    0.240E-02
RMM:   8    -0.116243372024E+04   -0.50177E-04   -0.40743E-05  6859   0.781E-03
  27 F= -.11624337E+04 E0= -.11624337E+04  d E =-.223539E-02  mag=     4.0000
       N       E                     dE             d eps       ncg     rms          rms(c)
DAV:   1    -0.116243264448E+04    0.10256E-02   -0.11429E+00 12856   0.120E+00    0.200E-01
RMM:   2    -0.116243520843E+04   -0.25639E-02   -0.26893E-02 12472   0.196E-01    0.131E-01
RMM:   3    -0.116243521454E+04   -0.61071E-05   -0.13656E-03 11593   0.676E-02    0.883E-02
RMM:   4    -0.116243520288E+04    0.11654E-04   -0.38280E-04  9333   0.223E-02    0.508E-02
RMM:   5    -0.116243523948E+04   -0.36601E-04   -0.92128E-05  7259   0.140E-02    0.257E-02
RMM:   6    -0.116243526953E+04   -0.30047E-04   -0.43994E-05  7027   0.890E-03    0.223E-02
RMM:   7    -0.116243529881E+04   -0.29276E-04   -0.28608E-05  6840   0.735E-03    0.215E-02
RMM:   8    -0.116243534424E+04   -0.45431E-04   -0.34313E-05  6754   0.709E-03
  28 F= -.11624353E+04 E0= -.11624353E+04  d E =-.162400E-02  mag=     4.0000
       N       E                     dE             d eps       ncg     rms          rms(c)
DAV:   1    -0.116243509252E+04    0.20629E-03   -0.94715E-01 12832   0.110E+00    0.187E-01
RMM:   2    -0.116243722851E+04   -0.21360E-02   -0.22361E-02 12579   0.180E-01    0.122E-01
RMM:   3    -0.116243722974E+04   -0.12303E-05   -0.11060E-03 11235   0.604E-02    0.816E-02
RMM:   4    -0.116243721918E+04    0.10563E-04   -0.29291E-04  8497   0.203E-02    0.449E-02
RMM:   5    -0.116243725466E+04   -0.35485E-04   -0.86717E-05  7201   0.130E-02    0.221E-02
RMM:   6    -0.116243727892E+04   -0.24252E-04   -0.36817E-05  6965   0.854E-03    0.207E-02
RMM:   7    -0.116243730187E+04   -0.22955E-04   -0.24426E-05  6767   0.647E-03    0.197E-02
RMM:   8    -0.116243734691E+04   -0.45036E-04   -0.34666E-05  6715   0.731E-03
  29 F= -.11624373E+04 E0= -.11624373E+04  d E =-.200267E-02  mag=     4.0000
       N       E                     dE             d eps       ncg     rms          rms(c)
DAV:   1    -0.116243680268E+04    0.49919E-03   -0.11138E+00 12688   0.119E+00    0.200E-01
RMM:   2    -0.116243929889E+04   -0.24962E-02   -0.26169E-02 12574   0.195E-01    0.128E-01
RMM:   3    -0.116243929756E+04    0.13276E-05   -0.13021E-03 11601   0.655E-02    0.858E-02
RMM:   4    -0.116243927360E+04    0.23963E-04   -0.33926E-04  8877   0.215E-02    0.479E-02
RMM:   5    -0.116243930350E+04   -0.29894E-04   -0.88118E-05  7228   0.137E-02    0.233E-02
RMM:   6    -0.116243932632E+04   -0.22821E-04   -0.39321E-05  6999   0.887E-03    0.197E-02
RMM:   7    -0.116243934921E+04   -0.22890E-04   -0.25784E-05  6812   0.705E-03    0.189E-02
RMM:   8    -0.116243938193E+04   -0.32720E-04   -0.26681E-05  6709   0.654E-03
  30 F= -.11624394E+04 E0= -.11624394E+04  d E =-.203502E-02  mag=     4.0000
