       N       E                     dE             d eps       ncg     rms          rms(c)
DAV:   1    -0.116340481050E+04   -0.11634E+04   -0.41309E-06  7800   0.434E-03    0.520E-03
RMM:   2    -0.116340481201E+04   -0.15111E-05   -0.26843E-06  3778   0.252E-03    0.606E-03
RMM:   3    -0.116340481251E+04   -0.49784E-06   -0.52809E-07  1994   0.181E-03    0.317E-03
RMM:   4    -0.116340481306E+04   -0.55291E-06   -0.47254E-07  1747   0.184E-03    0.332E-03
RMM:   5    -0.116340481294E+04    0.11752E-06   -0.93907E-08  1180   0.172E-03    0.322E-03
RMM:   6    -0.116340481298E+04   -0.38563E-07   -0.42681E-08   971   0.169E-03    0.334E-03
RMM:   7    -0.116340481221E+04    0.77554E-06   -0.12026E-07  1149   0.172E-03    0.432E-03
RMM:   8    -0.116340480764E+04    0.45666E-05   -0.30930E-06  3095   0.269E-03
   1 F= -.11634048E+04 E0= -.11634048E+04  d E =-.116340E+04  mag=    -2.0004
       N       E                     dE             d eps       ncg     rms          rms(c)
DAV:   1    -0.116340514815E+04   -0.33594E-03   -0.28032E-01 12672   0.612E-01    0.177E-01
RMM:   2    -0.116340556910E+04   -0.42095E-03   -0.88343E-03 12317   0.120E-01    0.169E-01
RMM:   3    -0.116340547636E+04    0.92734E-04   -0.42635E-04 10380   0.397E-02    0.111E-01
RMM:   4    -0.116340538451E+04    0.91853E-04   -0.33644E-04 10236   0.201E-02    0.549E-02
RMM:   5    -0.116340536366E+04    0.20851E-04   -0.59508E-05  7386   0.127E-02    0.190E-02
RMM:   6    -0.116340536566E+04   -0.19996E-05   -0.18564E-05  6971   0.588E-03    0.164E-02
RMM:   7    -0.116340536678E+04   -0.11274E-05   -0.69076E-06  6273   0.439E-03    0.124E-02
RMM:   8    -0.116340536860E+04   -0.18120E-05   -0.54289E-06  6164   0.321E-03
   2 F= -.11634054E+04 E0= -.11634053E+04  d E =-.560955E-03  mag=    -2.0004
       N       E                     dE             d eps       ncg     rms          rms(c)
DAV:   1    -0.116340605047E+04   -0.68369E-03   -0.68514E-02 12224   0.299E-01    0.950E-02
RMM:   2    -0.116340611829E+04   -0.67815E-04   -0.23757E-03 12121   0.631E-02    0.100E-01
RMM:   3    -0.116340608797E+04    0.30315E-04   -0.98400E-05  7375   0.197E-02    0.677E-02
RMM:   4    -0.116340605745E+04    0.30522E-04   -0.85442E-05  7151   0.114E-02    0.458E-02
RMM:   5    -0.116340604994E+04    0.75066E-05   -0.28253E-05  6642   0.778E-03    0.209E-02
RMM:   6    -0.116340605018E+04   -0.23955E-06   -0.11026E-05  5979   0.476E-03    0.138E-02
RMM:   7    -0.116340605073E+04   -0.54551E-06   -0.44495E-06  5011   0.355E-03    0.933E-03
RMM:   8    -0.116340605148E+04   -0.75015E-06   -0.25585E-06  4144   0.259E-03
   3 F= -.11634061E+04 E0= -.11634060E+04  d E =-.682881E-03  mag=    -2.0004
