       N       E                     dE             d eps       ncg     rms          rms(c)
DAV:   1     0.120060477125E+05    0.12006E+05   -0.42367E+05 12352   0.132E+03
DAV:   2     0.686920362282E+03   -0.11319E+05   -0.10113E+05 12296   0.377E+02
DAV:   3    -0.135344258468E+04   -0.20404E+04   -0.19641E+04 13240   0.167E+02
DAV:   4    -0.149234885751E+04   -0.13891E+03   -0.13652E+03 16176   0.458E+01
DAV:   5    -0.150158165580E+04   -0.92328E+01   -0.91828E+01 22216   0.109E+01    0.182E+02
RMM:   6    -0.116335505952E+04    0.33823E+03   -0.16232E+03 12507   0.355E+01    0.120E+02
RMM:   7    -0.114721259033E+04    0.16142E+02   -0.61176E+01 12838   0.117E+01    0.742E+01
RMM:   8    -0.115553338377E+04   -0.83208E+01   -0.25622E+01 14007   0.549E+00    0.489E+01
RMM:   9    -0.119221371630E+04   -0.36680E+02   -0.16488E+02 15518   0.106E+01    0.897E+01
RMM:  10    -0.116985683913E+04    0.22357E+02   -0.22060E+01 12667   0.491E+00    0.405E+01
RMM:  11    -0.114936875198E+04    0.20488E+02   -0.18109E+01 12764   0.372E+00    0.271E+01
RMM:  12    -0.115281396093E+04   -0.34452E+01   -0.17925E+00 14056   0.123E+00    0.216E+01
RMM:  13    -0.115516261545E+04   -0.23487E+01   -0.12987E+00 12887   0.118E+00    0.153E+01
RMM:  14    -0.115585697141E+04   -0.69436E+00   -0.25343E+00 13536   0.198E+00    0.943E+00
RMM:  15    -0.115606019201E+04   -0.20322E+00   -0.74676E-01 13981   0.799E-01    0.963E+00
RMM:  16    -0.115624859348E+04   -0.18840E+00   -0.36422E-01 13944   0.632E-01    0.654E+00
RMM:  17    -0.115684389407E+04   -0.59530E+00   -0.25800E-01 13503   0.581E-01    0.781E+00
RMM:  18    -0.115667327230E+04    0.17062E+00   -0.10035E-01 14807   0.358E-01    0.752E+00
RMM:  19    -0.115668664059E+04   -0.13368E-01   -0.13608E-02 16543   0.121E-01    0.797E+00
RMM:  20    -0.115675477226E+04   -0.68132E-01   -0.55782E-03 12880   0.896E-02    0.797E+00
RMM:  21    -0.115674722763E+04    0.75446E-02   -0.38577E-03 12274   0.867E-02    0.851E+00
RMM:  22    -0.115671129730E+04    0.35930E-01   -0.77619E-03 11927   0.131E-01    0.835E+00
RMM:  23    -0.115670665388E+04    0.46434E-02   -0.23971E-03 11247   0.734E-02    0.862E+00
RMM:  24    -0.115672091302E+04   -0.14259E-01   -0.10065E-03 10731   0.466E-02    0.882E+00
RMM:  25    -0.115675836206E+04   -0.37449E-01   -0.10817E-03 10508   0.476E-02    0.896E+00
RMM:  26    -0.115674302860E+04    0.15333E-01   -0.50943E-04  9305   0.318E-02    0.894E+00
RMM:  27    -0.115671928582E+04    0.23743E-01   -0.40008E-03 11057   0.801E-02    0.894E+00
RMM:  28    -0.115670749397E+04    0.11792E-01   -0.19309E-03 10812   0.633E-02    0.881E+00
RMM:  29    -0.115671030506E+04   -0.28111E-02   -0.49416E-04  9467   0.325E-02    0.872E+00
RMM:  30    -0.115675219120E+04   -0.41886E-01   -0.92933E-03 11743   0.120E-01    0.922E+00
RMM:  31    -0.115675647991E+04   -0.42887E-02   -0.31363E-03 11314   0.944E-02    0.928E+00
RMM:  32    -0.115675102118E+04    0.54587E-02   -0.23182E-03 10918   0.736E-02    0.940E+00
RMM:  33    -0.115678849751E+04   -0.37476E-01   -0.46613E-03 11486   0.865E-02    0.105E+01
RMM:  34    -0.115683052454E+04   -0.42027E-01   -0.18641E-02 12309   0.180E-01    0.111E+01
RMM:  35    -0.115684434747E+04   -0.13823E-01   -0.50270E-03 11534   0.902E-02    0.112E+01
RMM:  36    -0.115686791140E+04   -0.23564E-01   -0.88387E-03 12038   0.111E-01    0.114E+01
RMM:  37    -0.115693968187E+04   -0.71770E-01   -0.30049E-02 12747   0.188E-01    0.112E+01
RMM:  38    -0.115694378092E+04   -0.40991E-02   -0.51647E-03 12794   0.630E-02    0.111E+01
RMM:  39    -0.115694432653E+04   -0.54560E-03   -0.88270E-04 10690   0.323E-02    0.110E+01
RMM:  40    -0.115698327841E+04   -0.38952E-01   -0.22967E-02 12353   0.177E-01
   1 F= -.11569833E+04 E0= -.11569775E+04  d E =-.115698E+04  mag=    12.5443
       N       E                     dE             d eps       ncg     rms          rms(c)
DAV:   1    -0.113499187823E+04    0.21952E+02   -0.16489E+03 12384   0.417E+01    0.341E+01
RMM:   2    -0.116002699802E+04   -0.25035E+02   -0.32415E+02 14134   0.123E+01    0.256E+01
RMM:   3    -0.115651217853E+04    0.35148E+01   -0.24160E+01 13252   0.502E+00    0.194E+01
RMM:   4    -0.115371305577E+04    0.27991E+01   -0.57361E+00 14444   0.199E+00    0.125E+01
RMM:   5    -0.115472064708E+04   -0.10076E+01   -0.86322E+00 13333   0.150E+00    0.155E+01
RMM:   6    -0.115329668645E+04    0.14240E+01   -0.20588E+00 12575   0.102E+00    0.798E+00
RMM:   7    -0.115315860252E+04    0.13808E+00   -0.10207E+00 13403   0.952E-01    0.477E+00
RMM:   8    -0.115310882289E+04    0.49780E-01   -0.28611E-01 12593   0.544E-01    0.318E+00
RMM:   9    -0.115311309814E+04   -0.42753E-02   -0.26690E-01 13570   0.334E-01    0.246E+00
RMM:  10    -0.115312246410E+04   -0.93660E-02   -0.59452E-02 13234   0.224E-01    0.203E+00
RMM:  11    -0.115311377823E+04    0.86859E-02   -0.25143E-02 12710   0.145E-01    0.157E+00
RMM:  12    -0.115312594911E+04   -0.12171E-01   -0.61776E-02 13010   0.215E-01    0.895E-01
RMM:  13    -0.115313696455E+04   -0.11015E-01   -0.20508E-02 12774   0.155E-01    0.419E-01
RMM:  14    -0.115314184028E+04   -0.48757E-02   -0.64709E-03 13506   0.827E-02    0.282E-01
RMM:  15    -0.115314476645E+04   -0.29262E-02   -0.24865E-03 11952   0.601E-02    0.230E-01
RMM:  16    -0.115314611907E+04   -0.13526E-02   -0.22184E-03 11501   0.519E-02    0.162E-01
RMM:  17    -0.115314700425E+04   -0.88518E-03   -0.16560E-03 11371   0.417E-02    0.115E-01
RMM:  18    -0.115314772353E+04   -0.71928E-03   -0.73127E-04 10185   0.322E-02    0.857E-02
RMM:  19    -0.115314829246E+04   -0.56893E-03   -0.48393E-04  9253   0.257E-02    0.744E-02
RMM:  20    -0.115314883857E+04   -0.54610E-03   -0.44275E-04  9104   0.237E-02    0.734E-02
RMM:  21    -0.115314948784E+04   -0.64928E-03   -0.78334E-04  9957   0.318E-02    0.600E-02
RMM:  22    -0.115315010914E+04   -0.62130E-03   -0.11015E-03 10360   0.381E-02    0.475E-02
RMM:  23    -0.115315052802E+04   -0.41888E-03   -0.80041E-04  9727   0.319E-02    0.462E-02
RMM:  24    -0.115315080610E+04   -0.27808E-03   -0.55589E-04  9055   0.263E-02    0.412E-02
RMM:  25    -0.115315099613E+04   -0.19003E-03   -0.35761E-04  8486   0.205E-02    0.386E-02
RMM:  26    -0.115315116796E+04   -0.17183E-03   -0.46098E-04  8817   0.234E-02    0.264E-02
RMM:  27    -0.115315127096E+04   -0.10300E-03   -0.32861E-04  8340   0.192E-02    0.199E-02
RMM:  28    -0.115315132546E+04   -0.54500E-04   -0.20052E-04  7937   0.149E-02
   2 F= -.11531513E+04 E0= -.11531436E+04  d E =0.383195E+01  mag=     8.0227
       N       E                     dE             d eps       ncg     rms          rms(c)
DAV:   1    -0.115561081062E+04   -0.24595E+01   -0.62732E+02 12408   0.207E+01    0.193E+01
RMM:   2    -0.115790846958E+04   -0.22977E+01   -0.31184E+01 12293   0.571E+00    0.174E+01
RMM:   3    -0.115795897646E+04   -0.50507E-01   -0.23516E+00 13205   0.167E+00    0.117E+01
RMM:   4    -0.115768750272E+04    0.27147E+00   -0.22313E+00 12837   0.124E+00    0.722E+00
RMM:   5    -0.115750023185E+04    0.18727E+00   -0.53297E-01 13044   0.690E-01    0.348E+00
RMM:   6    -0.115751718130E+04   -0.16949E-01   -0.13339E-01 13298   0.332E-01    0.259E+00
RMM:   7    -0.115748407575E+04    0.33106E-01   -0.66445E-02 13205   0.207E-01    0.155E+00
RMM:   8    -0.115748631382E+04   -0.22381E-02   -0.52184E-02 13160   0.185E-01    0.712E-01
RMM:   9    -0.115749582663E+04   -0.95128E-02   -0.17805E-02 14261   0.124E-01    0.596E-01
RMM:  10    -0.115749240641E+04    0.34202E-02   -0.12793E-02 12205   0.102E-01    0.336E-01
RMM:  11    -0.115749583178E+04   -0.34254E-02   -0.32436E-03 11720   0.535E-02    0.273E-01
RMM:  12    -0.115749650009E+04   -0.66831E-03   -0.23553E-03 11929   0.377E-02    0.161E-01
RMM:  13    -0.115749693456E+04   -0.43447E-03   -0.10316E-03 11069   0.275E-02    0.951E-02
RMM:  14    -0.115749724475E+04   -0.31019E-03   -0.65580E-04 10147   0.221E-02    0.498E-02
RMM:  15    -0.115749738001E+04   -0.13525E-03   -0.24748E-04  8354   0.144E-02    0.404E-02
RMM:  16    -0.115749751709E+04   -0.13708E-03   -0.15648E-04  7908   0.118E-02    0.355E-02
RMM:  17    -0.115749764873E+04   -0.13164E-03   -0.12793E-04  7796   0.116E-02    0.305E-02
RMM:  18    -0.115749781006E+04   -0.16133E-03   -0.18246E-04  8099   0.134E-02    0.246E-02
RMM:  19    -0.115749794463E+04   -0.13457E-03   -0.21009E-04  8220   0.146E-02    0.218E-02
RMM:  20    -0.115749801194E+04   -0.67313E-04   -0.12543E-04  7718   0.115E-02
   3 F= -.11574980E+04 E0= -.11574978E+04  d E =-.434669E+01  mag=     7.9965
       N       E                     dE             d eps       ncg     rms          rms(c)
DAV:   1    -0.115798253102E+04   -0.48459E+00   -0.21820E+02 12624   0.152E+01    0.529E+00
RMM:   2    -0.115869036709E+04   -0.70784E+00   -0.73590E+00 12302   0.305E+00    0.693E+00
RMM:   3    -0.115859986483E+04    0.90502E-01   -0.37490E-01 13270   0.835E-01    0.525E+00
RMM:   4    -0.115852948884E+04    0.70376E-01   -0.19498E-01 12996   0.424E-01    0.250E+00
RMM:   5    -0.115852172756E+04    0.77613E-02   -0.10318E-01 12539   0.303E-01    0.174E+00
RMM:   6    -0.115851754389E+04    0.41837E-02   -0.43361E-02 13048   0.206E-01    0.763E-01
RMM:   7    -0.115851767735E+04   -0.13346E-03   -0.52487E-03 12524   0.826E-02    0.439E-01
RMM:   8    -0.115851777649E+04   -0.99143E-04   -0.44772E-03 12845   0.522E-02    0.251E-01
RMM:   9    -0.115851841159E+04   -0.63510E-03   -0.18859E-03 12062   0.392E-02    0.177E-01
RMM:  10    -0.115851884732E+04   -0.43573E-03   -0.54066E-04 10490   0.242E-02    0.115E-01
RMM:  11    -0.115851915311E+04   -0.30579E-03   -0.36240E-04  9406   0.207E-02    0.118E-01
RMM:  12    -0.115851924694E+04   -0.93823E-04   -0.30702E-04  9314   0.171E-02
   4 F= -.11585192E+04 E0= -.11585145E+04  d E =-.102123E+01  mag=     8.0160
       N       E                     dE             d eps       ncg     rms          rms(c)
DAV:   1    -0.115897861899E+04   -0.45947E+00   -0.59294E+01 13040   0.769E+00    0.301E+00
RMM:   2    -0.115916871599E+04   -0.19010E+00   -0.17702E+00 12307   0.150E+00    0.286E+00
RMM:   3    -0.115915911285E+04    0.96031E-02   -0.11590E-01 12919   0.454E-01    0.203E+00
RMM:   4    -0.115916872720E+04   -0.96143E-02   -0.65134E-02 13480   0.262E-01    0.161E+00
RMM:   5    -0.115918810380E+04   -0.19377E-01   -0.60442E-02 12870   0.253E-01    0.206E+00
RMM:   6    -0.115917423958E+04    0.13864E-01   -0.23414E-02 12348   0.163E-01    0.153E+00
RMM:   7    -0.115916934447E+04    0.48951E-02   -0.18008E-02 12852   0.127E-01    0.179E+00
RMM:   8    -0.115915506178E+04    0.14283E-01   -0.61808E-02 12968   0.245E-01    0.121E+00
RMM:   9    -0.115917968313E+04   -0.24621E-01   -0.10421E-01 13096   0.306E-01    0.497E+00
RMM:  10    -0.115916459630E+04    0.15087E-01   -0.10836E-02 12981   0.132E-01    0.282E+00
RMM:  11    -0.115918119108E+04   -0.16595E-01   -0.35716E-03 12200   0.666E-02    0.417E+00
RMM:  12    -0.115927346240E+04   -0.92271E-01   -0.11809E-02 12602   0.112E-01    0.819E+00
RMM:  13    -0.115927541147E+04   -0.19491E-02   -0.96371E-03 11835   0.134E-01    0.836E+00
RMM:  14    -0.115926918329E+04    0.62282E-02   -0.85603E-04  9796   0.437E-02    0.833E+00
RMM:  15    -0.115927872880E+04   -0.95455E-02   -0.66012E-04  9832   0.293E-02    0.855E+00
RMM:  16    -0.115929620022E+04   -0.17471E-01   -0.53363E-04  8813   0.295E-02    0.900E+00
RMM:  17    -0.115929272961E+04    0.34706E-02   -0.92182E-04  9877   0.554E-02    0.896E+00
RMM:  18    -0.115929572525E+04   -0.29956E-02   -0.11365E-04  7460   0.209E-02    0.901E+00
RMM:  19    -0.115929862833E+04   -0.29031E-02   -0.58962E-05  7179   0.132E-02    0.904E+00
RMM:  20    -0.115929312598E+04    0.55024E-02   -0.95905E-05  7299   0.170E-02    0.897E+00
RMM:  21    -0.115929826215E+04   -0.51362E-02   -0.13307E-04  7444   0.162E-02    0.907E+00
RMM:  22    -0.115929920586E+04   -0.94371E-03   -0.46719E-05  7059   0.970E-03    0.908E+00
RMM:  23    -0.115929364996E+04    0.55559E-02   -0.46779E-04  8819   0.316E-02    0.895E+00
RMM:  24    -0.115929937333E+04   -0.57234E-02   -0.10403E-04  7123   0.137E-02    0.898E+00
RMM:  25    -0.115932649419E+04   -0.27121E-01   -0.31492E-03 11086   0.651E-02    0.915E+00
RMM:  26    -0.115939638826E+04   -0.69894E-01   -0.70381E-03 12448   0.809E-02    0.976E+00
RMM:  27    -0.115936084734E+04    0.35541E-01   -0.10750E-03 10488   0.443E-02    0.932E+00
RMM:  28    -0.115934419720E+04    0.16650E-01   -0.43209E-04  8678   0.267E-02    0.913E+00
RMM:  29    -0.115923079091E+04    0.11341E+00   -0.13326E-02 12376   0.110E-01    0.588E+00
RMM:  30    -0.115924724829E+04   -0.16457E-01   -0.25882E-03 11119   0.880E-02    0.643E+00
RMM:  31    -0.115920480584E+04    0.42442E-01   -0.70438E-03 12136   0.974E-02    0.519E+00
RMM:  32    -0.115917014452E+04    0.34661E-01   -0.87540E-03 12627   0.977E-02    0.381E+00
RMM:  33    -0.115913448925E+04    0.35655E-01   -0.26670E-02 12871   0.162E-01    0.146E+00
RMM:  34    -0.115913306232E+04    0.14269E-02   -0.16856E-02 13182   0.136E-01    0.154E+00
RMM:  35    -0.115914183029E+04   -0.87680E-02   -0.62985E-03 12231   0.828E-02    0.278E+00
RMM:  36    -0.115914075371E+04    0.10766E-02   -0.13960E-03 11381   0.453E-02    0.273E+00
RMM:  37    -0.115913937810E+04    0.13756E-02   -0.14536E-04  8355   0.179E-02    0.265E+00
RMM:  38    -0.115913980398E+04   -0.42588E-03   -0.57350E-05  7732   0.984E-03    0.269E+00
RMM:  39    -0.115913985751E+04   -0.53533E-04   -0.27015E-05  7306   0.760E-03
   5 F= -.11591399E+04 E0= -.11591337E+04  d E =-.620611E+00  mag=     8.0097
       N       E                     dE             d eps       ncg     rms          rms(c)
DAV:   1    -0.115942708751E+04   -0.28728E+00   -0.29930E+01 12816   0.565E+00    0.368E+00
RMM:   2    -0.115951981349E+04   -0.92726E-01   -0.15997E+00 12297   0.150E+00    0.656E+00
RMM:   3    -0.115953303198E+04   -0.13218E-01   -0.95977E-02 13141   0.418E-01    0.487E+00
RMM:   4    -0.115958224941E+04   -0.49217E-01   -0.46642E-02 13324   0.248E-01    0.388E+00
RMM:   5    -0.115957966339E+04    0.25860E-02   -0.57654E-03 15425   0.750E-02    0.389E+00
RMM:   6    -0.115958031952E+04   -0.65613E-03   -0.43274E-02 13122   0.195E-01    0.351E+00
RMM:   7    -0.115959906813E+04   -0.18749E-01   -0.29191E-02 12934   0.191E-01    0.216E+00
RMM:   8    -0.115962183472E+04   -0.22767E-01   -0.19672E-02 12810   0.171E-01    0.173E+00
RMM:   9    -0.115963794756E+04   -0.16113E-01   -0.14122E-02 13003   0.135E-01    0.164E+00
RMM:  10    -0.115964263038E+04   -0.46828E-02   -0.48130E-03 12386   0.649E-02    0.156E+00
RMM:  11    -0.115967042675E+04   -0.27796E-01   -0.42583E-02 12522   0.231E-01    0.133E+00
RMM:  12    -0.115969098107E+04   -0.20554E-01   -0.49537E-02 12823   0.245E-01    0.103E+00
RMM:  13    -0.115970451290E+04   -0.13532E-01   -0.44321E-02 12977   0.225E-01    0.780E-01
RMM:  14    -0.115970863196E+04   -0.41191E-02   -0.15764E-02 12702   0.117E-01    0.590E-01
RMM:  15    -0.115971042458E+04   -0.17926E-02   -0.58952E-03 11453   0.781E-02    0.461E-01
RMM:  16    -0.115971051787E+04   -0.93297E-04   -0.47496E-03 12378   0.666E-02    0.252E-01
RMM:  17    -0.115971045760E+04    0.60275E-04   -0.20368E-03 11847   0.417E-02    0.133E-01
RMM:  18    -0.115971039894E+04    0.58657E-04   -0.39677E-04  8478   0.237E-02
   6 F= -.11597104E+04 E0= -.11597104E+04  d E =-.570541E+00  mag=     7.9991
       N       E                     dE             d eps       ncg     rms          rms(c)
DAV:   1    -0.115985462755E+04   -0.14417E+00   -0.26059E+00 13600   0.165E+00    0.835E-01
RMM:   2    -0.115986086908E+04   -0.62415E-02   -0.80960E-02 12723   0.362E-01    0.684E-01
RMM:   3    -0.115986046778E+04    0.40129E-03   -0.59492E-03 12520   0.112E-01    0.478E-01
RMM:   4    -0.115986009751E+04    0.37028E-03   -0.17246E-03 11106   0.522E-02    0.349E-01
RMM:   5    -0.115986018398E+04   -0.86471E-04   -0.15851E-03 11300   0.415E-02    0.864E-02
RMM:   6    -0.115986019979E+04   -0.15816E-04   -0.18054E-04  7989   0.199E-02    0.752E-02
RMM:   7    -0.115986024479E+04   -0.44998E-04   -0.70109E-05  7271   0.832E-03    0.484E-02
RMM:   8    -0.115986035254E+04   -0.10775E-03   -0.10578E-04  7194   0.103E-02    0.281E-02
RMM:   9    -0.115986039117E+04   -0.38625E-04   -0.36910E-05  6371   0.554E-03
   7 F= -.11598604E+04 E0= -.11598604E+04  d E =-.149992E+00  mag=     8.0000
       N       E                     dE             d eps       ncg     rms          rms(c)
DAV:   1    -0.116013312974E+04   -0.27278E+00   -0.85257E+01 12448   0.942E+00    0.446E+00
RMM:   2    -0.116038421388E+04   -0.25108E+00   -0.25270E+00 12486   0.205E+00    0.355E+00
RMM:   3    -0.116038352052E+04    0.69337E-03   -0.17652E-01 13342   0.658E-01    0.221E+00
RMM:   4    -0.116036998912E+04    0.13531E-01   -0.62015E-02 13104   0.293E-01    0.105E+00
RMM:   5    -0.116037063793E+04   -0.64881E-03   -0.20364E-02 13181   0.157E-01    0.458E-01
RMM:   6    -0.116036920755E+04    0.14304E-02   -0.36275E-03 13255   0.554E-02    0.196E-01
RMM:   7    -0.116036918106E+04    0.26488E-04   -0.92833E-04 11664   0.305E-02    0.102E-01
RMM:   8    -0.116036927189E+04   -0.90822E-04   -0.22140E-04  8733   0.197E-02
   8 F= -.11603693E+04 E0= -.11603693E+04  d E =-.508881E+00  mag=     8.0000
       N       E                     dE             d eps       ncg     rms          rms(c)
DAV:   1    -0.116038166985E+04   -0.12489E-01   -0.41089E+01 12704   0.702E+00    0.275E+00
RMM:   2    -0.116048689634E+04   -0.10523E+00   -0.12797E+00 12384   0.145E+00    0.244E+00
RMM:   3    -0.116048196407E+04    0.49323E-02   -0.80500E-02 13286   0.485E-01    0.159E+00
RMM:   4    -0.116047418297E+04    0.77811E-02   -0.40217E-02 13168   0.214E-01    0.764E-01
RMM:   5    -0.116047260780E+04    0.15752E-02   -0.90979E-03 13626   0.111E-01    0.281E-01
RMM:   6    -0.116047245830E+04    0.14950E-03   -0.15801E-03 13851   0.368E-02    0.175E-01
RMM:   7    -0.116047250760E+04   -0.49298E-04   -0.53126E-04 11430   0.224E-02    0.855E-02
RMM:   8    -0.116047256230E+04   -0.54705E-04   -0.16404E-04  8670   0.164E-02
   9 F= -.11604726E+04 E0= -.11604726E+04  d E =-.103290E+00  mag=     8.0000
       N       E                     dE             d eps       ncg     rms          rms(c)
DAV:   1    -0.116047900730E+04   -0.64997E-02   -0.12382E+01 13296   0.397E+00    0.134E+00
RMM:   2    -0.116050187348E+04   -0.22866E-01   -0.38627E-01 12488   0.808E-01    0.131E+00
RMM:   3    -0.116049942933E+04    0.24442E-02   -0.23981E-02 13167   0.267E-01    0.865E-01
RMM:   4    -0.116049628437E+04    0.31450E-02   -0.11800E-02 12881   0.118E-01    0.459E-01
RMM:   5    -0.116049555484E+04    0.72953E-03   -0.37878E-03 12246   0.723E-02    0.152E-01
RMM:   6    -0.116049547981E+04    0.75028E-04   -0.44672E-04 10531   0.231E-02    0.944E-02
RMM:   7    -0.116049549172E+04   -0.11913E-04   -0.16878E-04  8201   0.151E-02    0.451E-02
RMM:   8    -0.116049551402E+04   -0.22294E-04   -0.60608E-05  7622   0.112E-02
  10 F= -.11604955E+04 E0= -.11604955E+04  d E =-.229517E-01  mag=     8.0000
       N       E                     dE             d eps       ncg     rms          rms(c)
DAV:   1    -0.116051333465E+04   -0.17843E-01   -0.44474E+00 12864   0.240E+00    0.684E-01
RMM:   2    -0.116052333462E+04   -0.10000E-01   -0.11906E-01 12587   0.444E-01    0.563E-01
RMM:   3    -0.116052314036E+04    0.19426E-03   -0.70556E-03 12960   0.150E-01    0.366E-01
RMM:   4    -0.116052267668E+04    0.46368E-03   -0.27433E-03 13229   0.562E-02    0.188E-01
RMM:   5    -0.116052255304E+04    0.12365E-03   -0.69638E-04 11165   0.281E-02    0.624E-02
RMM:   6    -0.116052255901E+04   -0.59682E-05   -0.77261E-05  7544   0.136E-02    0.382E-02
RMM:   7    -0.116052258113E+04   -0.22119E-04   -0.52816E-05  7327   0.923E-03    0.234E-02
RMM:   8    -0.116052259803E+04   -0.16902E-04   -0.28983E-05  7163   0.777E-03
  11 F= -.11605226E+04 E0= -.11605226E+04  d E =-.270840E-01  mag=     8.0000
       N       E                     dE             d eps       ncg     rms          rms(c)
DAV:   1    -0.116051492534E+04    0.76558E-02   -0.17122E+01 12560   0.474E+00    0.107E+00
RMM:   2    -0.116055495391E+04   -0.40029E-01   -0.41947E-01 12834   0.824E-01    0.750E-01
RMM:   3    -0.116055521071E+04   -0.25681E-03   -0.21757E-02 13259   0.270E-01    0.472E-01
RMM:   4    -0.116055416118E+04    0.10495E-02   -0.59271E-03 15511   0.861E-02    0.246E-01
RMM:   5    -0.116055402314E+04    0.13804E-03   -0.19416E-03 14038   0.427E-02    0.687E-02
RMM:   6    -0.116055403127E+04   -0.81276E-05   -0.23676E-04  9283   0.196E-02    0.431E-02
RMM:   7    -0.116055406315E+04   -0.31884E-04   -0.14588E-04  8040   0.130E-02    0.250E-02
RMM:   8    -0.116055408413E+04   -0.20980E-04   -0.78838E-05  7531   0.111E-02
  12 F= -.11605541E+04 E0= -.11605541E+04  d E =-.314861E-01  mag=     8.0000
       N       E                     dE             d eps       ncg     rms          rms(c)
DAV:   1    -0.116055162972E+04    0.24334E-02   -0.84492E+00 12752   0.334E+00    0.653E-01
RMM:   2    -0.116057067677E+04   -0.19047E-01   -0.20233E-01 12802   0.559E-01    0.419E-01
RMM:   3    -0.116057067041E+04    0.63523E-05   -0.10169E-02 12931   0.191E-01    0.269E-01
RMM:   4    -0.116057025644E+04    0.41397E-03   -0.28595E-03 15088   0.602E-02    0.134E-01
RMM:   5    -0.116057025555E+04    0.89531E-06   -0.72395E-04 12311   0.269E-02    0.440E-02
RMM:   6    -0.116057027211E+04   -0.16564E-04   -0.10825E-04  7957   0.148E-02    0.255E-02
RMM:   7    -0.116057029560E+04   -0.23490E-04   -0.92133E-05  7658   0.108E-02    0.180E-02
RMM:   8    -0.116057031553E+04   -0.19927E-04   -0.55368E-05  7358   0.944E-03
  13 F= -.11605703E+04 E0= -.11605703E+04  d E =-.162314E-01  mag=     8.0000
       N       E                     dE             d eps       ncg     rms          rms(c)
DAV:   1    -0.116057084555E+04   -0.54995E-03   -0.51599E+00 12832   0.261E+00    0.495E-01
RMM:   2    -0.116058202454E+04   -0.11179E-01   -0.12630E-01 12549   0.442E-01    0.391E-01
RMM:   3    -0.116058188737E+04    0.13717E-03   -0.66198E-03 12655   0.159E-01    0.258E-01
RMM:   4    -0.116058166528E+04    0.22209E-03   -0.19293E-03 14212   0.501E-02    0.173E-01
RMM:   5    -0.116058155897E+04    0.10630E-03   -0.58169E-04 11512   0.243E-02    0.451E-02
RMM:   6    -0.116058157181E+04   -0.12831E-04   -0.97188E-05  7540   0.149E-02    0.238E-02
RMM:   7    -0.116058158273E+04   -0.10920E-04   -0.58138E-05  7285   0.972E-03    0.195E-02
RMM:   8    -0.116058159278E+04   -0.10056E-04   -0.37685E-05  7114   0.878E-03
  14 F= -.11605816E+04 E0= -.11605816E+04  d E =-.112773E-01  mag=     8.0000
       N       E                     dE             d eps       ncg     rms          rms(c)
DAV:   1    -0.116058268166E+04   -0.10989E-02   -0.29480E+00 12848   0.198E+00    0.371E-01
RMM:   2    -0.116058909013E+04   -0.64085E-02   -0.71892E-02 12557   0.332E-01    0.250E-01
RMM:   3    -0.116058902392E+04    0.66211E-04   -0.38362E-03 12608   0.120E-01    0.165E-01
RMM:   4    -0.116058888860E+04    0.13532E-03   -0.10988E-03 13204   0.378E-02    0.957E-02
RMM:   5    -0.116058886882E+04    0.19773E-04   -0.28161E-04  9118   0.196E-02    0.281E-02
RMM:   6    -0.116058887956E+04   -0.10731E-04   -0.60652E-05  7298   0.122E-02    0.185E-02
RMM:   7    -0.116058888975E+04   -0.10194E-04   -0.45459E-05  7106   0.916E-03    0.157E-02
RMM:   8    -0.116058889950E+04   -0.97555E-05   -0.30796E-05  6896   0.762E-03
  15 F= -.11605889E+04 E0= -.11605889E+04  d E =-.730672E-02  mag=     8.0000
       N       E                     dE             d eps       ncg     rms          rms(c)
DAV:   1    -0.116058637181E+04    0.25179E-02   -0.54099E+00 12672   0.269E+00    0.455E-01
RMM:   2    -0.116059806784E+04   -0.11696E-01   -0.12856E-01 12422   0.445E-01    0.278E-01
RMM:   3    -0.116059803730E+04    0.30545E-04   -0.68464E-03 12412   0.168E-01    0.183E-01
RMM:   4    -0.116059784035E+04    0.19695E-03   -0.20367E-03 14459   0.510E-02    0.110E-01
RMM:   5    -0.116059782697E+04    0.13378E-04   -0.31917E-04  9730   0.194E-02    0.320E-02
RMM:   6    -0.116059784322E+04   -0.16249E-04   -0.10247E-04  7498   0.140E-02    0.200E-02
RMM:   7    -0.116059785326E+04   -0.10038E-04   -0.62133E-05  7181   0.103E-02    0.201E-02
RMM:   8    -0.116059786232E+04   -0.90647E-05   -0.38938E-05  6984   0.846E-03
  16 F= -.11605979E+04 E0= -.11605979E+04  d E =-.896282E-02  mag=     8.0000
       N       E                     dE             d eps       ncg     rms          rms(c)
DAV:   1    -0.116059375492E+04    0.40983E-02   -0.53859E+00 12672   0.268E+00    0.454E-01
RMM:   2    -0.116060547877E+04   -0.11724E-01   -0.12847E-01 12489   0.444E-01    0.272E-01
RMM:   3    -0.116060544055E+04    0.38222E-04   -0.67477E-03 12482   0.165E-01    0.180E-01
RMM:   4    -0.116060524019E+04    0.20036E-03   -0.20130E-03 14474   0.504E-02    0.997E-02
RMM:   5    -0.116060524234E+04   -0.21515E-05   -0.30623E-04  9549   0.191E-02    0.297E-02
RMM:   6    -0.116060525788E+04   -0.15540E-04   -0.10012E-04  7527   0.135E-02    0.185E-02
RMM:   7    -0.116060526742E+04   -0.95447E-05   -0.65216E-05  7196   0.101E-02    0.185E-02
RMM:   8    -0.116060527507E+04   -0.76433E-05   -0.38931E-05  6953   0.843E-03
  17 F= -.11606053E+04 E0= -.11606053E+04  d E =-.741274E-02  mag=     8.0000
       N       E                     dE             d eps       ncg     rms          rms(c)
DAV:   1    -0.116060465374E+04    0.61368E-03   -0.23750E+00 12776   0.178E+00    0.303E-01
RMM:   2    -0.116060984851E+04   -0.51948E-02   -0.57066E-02 12463   0.296E-01    0.185E-01
RMM:   3    -0.116060983376E+04    0.14757E-04   -0.30266E-03 12460   0.110E-01    0.121E-01
RMM:   4    -0.116060974097E+04    0.92785E-04   -0.81286E-04 12869   0.332E-02    0.680E-02
RMM:   5    -0.116060974146E+04   -0.49203E-06   -0.16766E-04  7732   0.166E-02    0.194E-02
RMM:   6    -0.116060975037E+04   -0.89087E-05   -0.57186E-05  7140   0.111E-02    0.126E-02
RMM:   7    -0.116060975697E+04   -0.65968E-05   -0.38626E-05  6971   0.887E-03    0.100E-02
RMM:   8    -0.116060976315E+04   -0.61784E-05   -0.25119E-05  6677   0.707E-03
  18 F= -.11606098E+04 E0= -.11606098E+04  d E =-.448808E-02  mag=     8.0000
       N       E                     dE             d eps       ncg     rms          rms(c)
DAV:   1    -0.116060875684E+04    0.10001E-02   -0.22139E+00 12768   0.173E+00    0.295E-01
RMM:   2    -0.116061360541E+04   -0.48486E-02   -0.53177E-02 12427   0.286E-01    0.176E-01
RMM:   3    -0.116061359947E+04    0.59388E-05   -0.28339E-03 12303   0.108E-01    0.115E-01
RMM:   4    -0.116061351567E+04    0.83799E-04   -0.75049E-04 12581   0.322E-02    0.692E-02
RMM:   5    -0.116061351832E+04   -0.26477E-05   -0.14709E-04  7522   0.162E-02    0.195E-02
RMM:   6    -0.116061352713E+04   -0.88033E-05   -0.55863E-05  7110   0.113E-02    0.121E-02
RMM:   7    -0.116061353246E+04   -0.53349E-05   -0.35757E-05  6920   0.857E-03    0.103E-02
RMM:   8    -0.116061353729E+04   -0.48291E-05   -0.23120E-05  6643   0.713E-03
  19 F= -.11606135E+04 E0= -.11606135E+04  d E =-.377414E-02  mag=     8.0000
       N       E                     dE             d eps       ncg     rms          rms(c)
DAV:   1    -0.116061210151E+04    0.14309E-02   -0.20669E+00 12768   0.166E+00    0.282E-01
RMM:   2    -0.116061664285E+04   -0.45413E-02   -0.49341E-02 12482   0.275E-01    0.165E-01
RMM:   3    -0.116061663712E+04    0.57259E-05   -0.26005E-03 12307   0.102E-01    0.109E-01
RMM:   4    -0.116061655703E+04    0.80096E-04   -0.68048E-04 12105   0.308E-02    0.667E-02
RMM:   5    -0.116061655993E+04   -0.29026E-05   -0.13084E-04  7441   0.156E-02    0.200E-02
RMM:   6    -0.116061656853E+04   -0.86025E-05   -0.54004E-05  7097   0.111E-02    0.127E-02
RMM:   7    -0.116061657329E+04   -0.47610E-05   -0.32846E-05  6924   0.833E-03    0.113E-02
RMM:   8    -0.116061657762E+04   -0.43237E-05   -0.21141E-05  6637   0.700E-03
  20 F= -.11606166E+04 E0= -.11606166E+04  d E =-.304033E-02  mag=     8.0000
       N       E                     dE             d eps       ncg     rms          rms(c)
DAV:   1    -0.116061541831E+04    0.11550E-02   -0.15781E+00 12824   0.145E+00    0.246E-01
RMM:   2    -0.116061891024E+04   -0.34919E-02   -0.37743E-02 12442   0.240E-01    0.144E-01
RMM:   3    -0.116061891234E+04   -0.20988E-05   -0.19976E-03 12212   0.896E-02    0.950E-02
RMM:   4    -0.116061885143E+04    0.60914E-04   -0.50364E-04 10835   0.266E-02    0.572E-02
RMM:   5    -0.116061885424E+04   -0.28119E-05   -0.10468E-04  7272   0.148E-02    0.167E-02
RMM:   6    -0.116061886171E+04   -0.74661E-05   -0.44094E-05  7027   0.102E-02    0.105E-02
RMM:   7    -0.116061886596E+04   -0.42580E-05   -0.27259E-05  6844   0.763E-03    0.833E-03
RMM:   8    -0.116061886984E+04   -0.38805E-05   -0.17978E-05  6598   0.637E-03
  21 F= -.11606189E+04 E0= -.11606189E+04  d E =-.229223E-02  mag=     8.0000
       N       E                     dE             d eps       ncg     rms          rms(c)
DAV:   1    -0.116061759736E+04    0.12686E-02   -0.14610E+00 12760   0.140E+00    0.239E-01
RMM:   2    -0.116062082593E+04   -0.32286E-02   -0.34865E-02 12440   0.231E-01    0.141E-01
RMM:   3    -0.116062082563E+04    0.29893E-06   -0.18334E-03 12121   0.854E-02    0.913E-02
RMM:   4    -0.116062076541E+04    0.60218E-04   -0.45387E-04 10379   0.253E-02    0.535E-02
RMM:   5    -0.116062076671E+04   -0.12996E-05   -0.10362E-04  7261   0.146E-02    0.162E-02
RMM:   6    -0.116062077356E+04   -0.68473E-05   -0.41004E-05  7007   0.989E-03    0.101E-02
RMM:   7    -0.116062077770E+04   -0.41401E-05   -0.25514E-05  6798   0.729E-03    0.777E-03
RMM:   8    -0.116062078127E+04   -0.35666E-05   -0.16904E-05  6605   0.613E-03
  22 F= -.11606208E+04 E0= -.11606208E+04  d E =-.191142E-02  mag=     8.0000
       N       E                     dE             d eps       ncg     rms          rms(c)
DAV:   1    -0.116061958933E+04    0.11884E-02   -0.11938E+00 12832   0.126E+00    0.216E-01
RMM:   2    -0.116062224086E+04   -0.26515E-02   -0.28592E-02 12476   0.209E-01    0.127E-01
RMM:   3    -0.116062224126E+04   -0.39909E-06   -0.14978E-03 11919   0.761E-02    0.836E-02
RMM:   4    -0.116062219300E+04    0.48267E-04   -0.37837E-04  9375   0.232E-02    0.480E-02
RMM:   5    -0.116062219545E+04   -0.24565E-05   -0.83693E-05  7166   0.137E-02    0.164E-02
RMM:   6    -0.116062220162E+04   -0.61697E-05   -0.36761E-05  6987   0.926E-03    0.102E-02
RMM:   7    -0.116062220536E+04   -0.37373E-05   -0.22167E-05  6790   0.692E-03    0.759E-03
RMM:   8    -0.116062220894E+04   -0.35764E-05   -0.15190E-05  6544   0.578E-03
  23 F= -.11606222E+04 E0= -.11606222E+04  d E =-.142767E-02  mag=     8.0000
       N       E                     dE             d eps       ncg     rms          rms(c)
DAV:   1    -0.116062187120E+04    0.33416E-03   -0.54742E-01 12848   0.854E-01    0.150E-01
RMM:   2    -0.116062310487E+04   -0.12337E-02   -0.13211E-02 12662   0.142E-01    0.879E-02
RMM:   3    -0.116062309457E+04    0.10304E-04   -0.63142E-04  9949   0.486E-02    0.566E-02
RMM:   4    -0.116062306851E+04    0.26055E-04   -0.14592E-04  7368   0.163E-02    0.290E-02
RMM:   5    -0.116062307335E+04   -0.48395E-05   -0.49657E-05  7000   0.105E-02    0.125E-02
RMM:   6    -0.116062307676E+04   -0.34089E-05   -0.21404E-05  6820   0.699E-03    0.849E-03
RMM:   7    -0.116062307917E+04   -0.24130E-05   -0.13140E-05  6440   0.523E-03    0.749E-03
RMM:   8    -0.116062308130E+04   -0.21259E-05   -0.86526E-06  5872   0.446E-03
  24 F= -.11606231E+04 E0= -.11606231E+04  d E =-.872363E-03  mag=     8.0000
       N       E                     dE             d eps       ncg     rms          rms(c)
DAV:   1    -0.116062267988E+04    0.39929E-03   -0.51499E-01 12752   0.827E-01    0.142E-01
RMM:   2    -0.116062383096E+04   -0.11511E-02   -0.12328E-02 12400   0.136E-01    0.822E-02
RMM:   3    -0.116062382664E+04    0.43193E-05   -0.60217E-04  9923   0.490E-02    0.543E-02
RMM:   4    -0.116062380449E+04    0.22152E-04   -0.13316E-04  7248   0.154E-02    0.356E-02
RMM:   5    -0.116062380767E+04   -0.31798E-05   -0.41235E-05  6978   0.101E-02    0.172E-02
RMM:   6    -0.116062381135E+04   -0.36813E-05   -0.21990E-05  6813   0.692E-03    0.111E-02
RMM:   7    -0.116062381348E+04   -0.21288E-05   -0.12348E-05  6381   0.562E-03    0.871E-03
RMM:   8    -0.116062381521E+04   -0.17304E-05   -0.82492E-06  5621   0.423E-03
  25 F= -.11606238E+04 E0= -.11606238E+04  d E =-.733911E-03  mag=     8.0000
