       N       E                     dE             d eps       ncg     rms          rms(c)
DAV:   1    -0.115905965714E+04   -0.11591E+04   -0.25537E-06  7160   0.372E-03    0.774E-03
RMM:   2    -0.115905965727E+04   -0.12861E-06   -0.12569E-06  3728   0.223E-03    0.118E-02
RMM:   3    -0.115905965730E+04   -0.34081E-07   -0.67681E-08  1521   0.161E-03    0.368E-03
RMM:   4    -0.115905965739E+04   -0.81563E-07   -0.67077E-08  1277   0.164E-03    0.187E-03
RMM:   5    -0.115905965745E+04   -0.67856E-07   -0.37018E-08   989   0.163E-03    0.153E-03
RMM:   6    -0.115905965759E+04   -0.13680E-06   -0.95176E-08  1055   0.169E-03    0.113E-03
RMM:   7    -0.115905965774E+04   -0.14690E-06   -0.21414E-07  1298   0.176E-03    0.129E-03
RMM:   8    -0.115905965781E+04   -0.75233E-07   -0.13483E-07  1073   0.168E-03
   1 F= -.11590597E+04 E0= -.11590597E+04  d E =-.115906E+04  mag=    12.0000
       N       E                     dE             d eps       ncg     rms          rms(c)
DAV:   1    -0.115906001088E+04   -0.35314E-03   -0.27661E-01 12160   0.589E-01    0.125E-01
RMM:   2    -0.115906069835E+04   -0.68747E-03   -0.76451E-03 12093   0.110E-01    0.930E-02
RMM:   3    -0.115906068967E+04    0.86791E-05   -0.29426E-04  8788   0.290E-02    0.627E-02
RMM:   4    -0.115906068157E+04    0.81016E-05   -0.93843E-05  7269   0.131E-02    0.382E-02
RMM:   5    -0.115906069644E+04   -0.14874E-04   -0.41443E-05  6863   0.893E-03    0.435E-02
RMM:   6    -0.115906070566E+04   -0.92209E-05   -0.14410E-05  6270   0.552E-03    0.162E-02
RMM:   7    -0.115906071456E+04   -0.89013E-05   -0.75105E-06  5787   0.384E-03    0.161E-02
RMM:   8    -0.115906072784E+04   -0.13272E-04   -0.97514E-06  5973   0.407E-03
   2 F= -.11590607E+04 E0= -.11590607E+04  d E =-.107002E-02  mag=    12.0000
       N       E                     dE             d eps       ncg     rms          rms(c)
DAV:   1    -0.115906064180E+04    0.72767E-04   -0.16617E-01 12096   0.456E-01    0.969E-02
RMM:   2    -0.115906107015E+04   -0.42835E-03   -0.46214E-03 12072   0.857E-02    0.736E-02
RMM:   3    -0.115906107192E+04   -0.17705E-05   -0.17112E-04  7762   0.234E-02    0.510E-02
RMM:   4    -0.115906108194E+04   -0.10021E-04   -0.66837E-05  7151   0.111E-02    0.343E-02
RMM:   5    -0.115906109990E+04   -0.17958E-04   -0.31699E-05  6570   0.783E-03    0.430E-02
RMM:   6    -0.115906111231E+04   -0.12414E-04   -0.14147E-05  6260   0.511E-03    0.166E-02
RMM:   7    -0.115906112323E+04   -0.10919E-04   -0.74614E-06  5803   0.377E-03    0.169E-02
RMM:   8    -0.115906114443E+04   -0.21198E-04   -0.16422E-05  6322   0.502E-03
   3 F= -.11590611E+04 E0= -.11590611E+04  d E =-.148661E-02  mag=    12.0000
       N       E                     dE             d eps       ncg     rms          rms(c)
DAV:   1    -0.115906159705E+04   -0.47382E-03   -0.13223E-01 12248   0.413E-01    0.761E-02
RMM:   2    -0.115906192328E+04   -0.32623E-03   -0.34666E-03 12077   0.740E-02    0.545E-02
RMM:   3    -0.115906192521E+04   -0.19241E-05   -0.12717E-04  7361   0.215E-02    0.377E-02
RMM:   4    -0.115906193414E+04   -0.89278E-05   -0.50766E-05  6957   0.941E-03    0.247E-02
RMM:   5    -0.115906194555E+04   -0.11417E-04   -0.18473E-05  6318   0.605E-03    0.198E-02
RMM:   6    -0.115906195142E+04   -0.58673E-05   -0.73799E-06  5505   0.369E-03    0.128E-02
RMM:   7    -0.115906195801E+04   -0.65935E-05   -0.50948E-06  5404   0.342E-03    0.114E-02
RMM:   8    -0.115906197100E+04   -0.12982E-04   -0.11450E-05  5930   0.413E-03
   4 F= -.11590620E+04 E0= -.11590620E+04  d E =-.826570E-03  mag=    12.0000
       N       E                     dE             d eps       ncg     rms          rms(c)
DAV:   1    -0.115906057350E+04    0.13845E-02   -0.11876E+00 12712   0.124E+00    0.226E-01
RMM:   2    -0.115906342138E+04   -0.28479E-02   -0.30884E-02 12292   0.220E-01    0.160E-01
RMM:   3    -0.115906343004E+04   -0.86682E-05   -0.14180E-03 12244   0.624E-02    0.110E-01
RMM:   4    -0.115906341936E+04    0.10684E-04   -0.40015E-04 10147   0.223E-02    0.682E-02
RMM:   5    -0.115906346159E+04   -0.42230E-04   -0.96939E-05  7625   0.142E-02    0.408E-02
RMM:   6    -0.115906349322E+04   -0.31631E-04   -0.33550E-05  7072   0.799E-03    0.277E-02
RMM:   7    -0.115906352754E+04   -0.34323E-04   -0.21444E-05  6936   0.632E-03    0.229E-02
RMM:   8    -0.115906357466E+04   -0.47118E-04   -0.31388E-05  6983   0.686E-03
   5 F= -.11590636E+04 E0= -.11590636E+04  d E =-.243024E-02  mag=    12.0000
       N       E                     dE             d eps       ncg     rms          rms(c)
DAV:   1    -0.115905109362E+04    0.12434E-01   -0.47506E+00 12704   0.247E+00    0.449E-01
RMM:   2    -0.115906248513E+04   -0.11392E-01   -0.12346E-01 12292   0.439E-01    0.320E-01
RMM:   3    -0.115906251937E+04   -0.34242E-04   -0.56694E-03 12735   0.124E-01    0.220E-01
RMM:   4    -0.115906248312E+04    0.36256E-04   -0.16381E-03 12253   0.443E-02    0.138E-01
RMM:   5    -0.115906266079E+04   -0.17767E-03   -0.46895E-04 10588   0.256E-02    0.772E-02
RMM:   6    -0.115906278291E+04   -0.12212E-03   -0.96120E-05  7652   0.131E-02    0.537E-02
RMM:   7    -0.115906291883E+04   -0.13592E-03   -0.71347E-05  7468   0.107E-02    0.439E-02
RMM:   8    -0.115906318023E+04   -0.26140E-03   -0.22856E-04  8376   0.172E-02    0.303E-02
RMM:   9    -0.115906326425E+04   -0.84022E-04   -0.89883E-05  7524   0.110E-02
   6 F= -.11590633E+04 E0= -.11590633E+04  d E =-.211983E-02  mag=    12.0000
       N       E                     dE             d eps       ncg     rms          rms(c)
DAV:   1    -0.115905820588E+04    0.49744E-02   -0.24915E+00 12664   0.179E+00    0.328E-01
RMM:   2    -0.115906407858E+04   -0.58727E-02   -0.64748E-02 12292   0.318E-01    0.230E-01
RMM:   3    -0.115906403835E+04    0.40233E-04   -0.28878E-03 12484   0.885E-02    0.155E-01
RMM:   4    -0.115906390321E+04    0.13514E-03   -0.74905E-04 11346   0.304E-02    0.904E-02
RMM:   5    -0.115906391452E+04   -0.11315E-04   -0.17258E-04  8278   0.183E-02    0.557E-02
RMM:   6    -0.115906393903E+04   -0.24502E-04   -0.44915E-05  7187   0.992E-03    0.297E-02
RMM:   7    -0.115906396085E+04   -0.21827E-04   -0.23148E-05  6963   0.696E-03    0.222E-02
RMM:   8    -0.115906399204E+04   -0.31184E-04   -0.24541E-05  6893   0.661E-03
   7 F= -.11590640E+04 E0= -.11590640E+04  d E =-.284761E-02  mag=    12.0000
       N       E                     dE             d eps       ncg     rms          rms(c)
DAV:   1    -0.115906260935E+04    0.13515E-02   -0.62161E-01 12616   0.895E-01    0.164E-01
RMM:   2    -0.115906406306E+04   -0.14537E-02   -0.16064E-02 12216   0.158E-01    0.114E-01
RMM:   3    -0.115906404486E+04    0.18204E-04   -0.65698E-04 10719   0.431E-02    0.767E-02
RMM:   4    -0.115906400518E+04    0.39674E-04   -0.15219E-04  7514   0.154E-02    0.449E-02
RMM:   5    -0.115906400695E+04   -0.17604E-05   -0.47943E-05  7032   0.984E-03    0.342E-02
RMM:   6    -0.115906401128E+04   -0.43354E-05   -0.14826E-05  6601   0.597E-03    0.144E-02
RMM:   7    -0.115906401485E+04   -0.35664E-05   -0.72082E-06  5916   0.386E-03    0.115E-02
RMM:   8    -0.115906401866E+04   -0.38117E-05   -0.50144E-06  5694   0.338E-03
   8 F= -.11590640E+04 E0= -.11590640E+04  d E =-.287423E-02  mag=    12.0000
       N       E                     dE             d eps       ncg     rms          rms(c)
DAV:   1    -0.115906383776E+04    0.17709E-03   -0.12045E-01 12328   0.394E-01    0.717E-02
RMM:   2    -0.115906411730E+04   -0.27954E-03   -0.30965E-03 12068   0.702E-02    0.501E-02
RMM:   3    -0.115906411270E+04    0.46007E-05   -0.10985E-04  6632   0.203E-02    0.334E-02
RMM:   4    -0.115906410683E+04    0.58698E-05   -0.37688E-05  6302   0.827E-03    0.196E-02
RMM:   5    -0.115906410780E+04   -0.97214E-06   -0.11675E-05  5635   0.499E-03    0.134E-02
RMM:   6    -0.115906410882E+04   -0.10226E-05   -0.36462E-06  4423   0.296E-03    0.596E-03
RMM:   7    -0.115906410956E+04   -0.74130E-06   -0.13073E-06  3123   0.234E-03    0.414E-03
RMM:   8    -0.115906411070E+04   -0.11347E-05   -0.14413E-06  3401   0.228E-03
   9 F= -.11590641E+04 E0= -.11590641E+04  d E =-.296627E-02  mag=    12.0000
       N       E                     dE             d eps       ncg     rms          rms(c)
DAV:   1    -0.115906430718E+04   -0.19761E-03   -0.53938E-02 12192   0.263E-01    0.464E-02
RMM:   2    -0.115906443602E+04   -0.12884E-03   -0.13427E-03 11722   0.457E-02    0.295E-02
RMM:   3    -0.115906443520E+04    0.81751E-06   -0.46006E-05  6366   0.130E-02    0.201E-02
RMM:   4    -0.115906443372E+04    0.14879E-05   -0.15295E-05  6080   0.526E-03    0.106E-02
RMM:   5    -0.115906443475E+04   -0.10366E-05   -0.41934E-06  4915   0.318E-03    0.584E-03
RMM:   6    -0.115906443520E+04   -0.45028E-06   -0.10752E-06  2845   0.207E-03    0.342E-03
RMM:   7    -0.115906443567E+04   -0.47236E-06   -0.46095E-07  2269   0.195E-03    0.267E-03
RMM:   8    -0.115906443642E+04   -0.74386E-06   -0.96505E-07  2886   0.213E-03
  10 F= -.11590644E+04 E0= -.11590644E+04  d E =-.325720E-03  mag=    12.0000
       N       E                     dE             d eps       ncg     rms          rms(c)
DAV:   1    -0.115906403877E+04    0.39690E-03   -0.48586E-01 12624   0.791E-01    0.139E-01
RMM:   2    -0.115906522095E+04   -0.11822E-02   -0.12202E-02 12180   0.137E-01    0.894E-02
RMM:   3    -0.115906522916E+04   -0.82051E-05   -0.51928E-04  9769   0.395E-02    0.623E-02
RMM:   4    -0.115906522511E+04    0.40469E-05   -0.12700E-04  7349   0.142E-02    0.342E-02
RMM:   5    -0.115906524729E+04   -0.22183E-04   -0.41616E-05  6975   0.883E-03    0.226E-02
RMM:   6    -0.115906525568E+04   -0.83900E-05   -0.14407E-05  6663   0.557E-03    0.167E-02
RMM:   7    -0.115906526675E+04   -0.11061E-04   -0.10403E-05  6254   0.430E-03    0.131E-02
RMM:   8    -0.115906528447E+04   -0.17724E-04   -0.15657E-05  6524   0.514E-03
  11 F= -.11590653E+04 E0= -.11590653E+04  d E =-.117377E-02  mag=    12.0000
       N       E                     dE             d eps       ncg     rms          rms(c)
DAV:   1    -0.115906132898E+04    0.39378E-02   -0.19444E+00 12672   0.158E+00    0.278E-01
RMM:   2    -0.115906606158E+04   -0.47326E-02   -0.48834E-02 12284   0.274E-01    0.179E-01
RMM:   3    -0.115906610770E+04   -0.46127E-04   -0.22156E-03 12511   0.777E-02    0.125E-01
RMM:   4    -0.115906609793E+04    0.97752E-05   -0.59066E-04 11220   0.266E-02    0.680E-02
RMM:   5    -0.115906617981E+04   -0.81885E-04   -0.13766E-04  7716   0.166E-02    0.418E-02
RMM:   6    -0.115906621698E+04   -0.37168E-04   -0.43949E-05  7152   0.942E-03    0.325E-02
RMM:   7    -0.115906626965E+04   -0.52670E-04   -0.35399E-05  7051   0.790E-03    0.251E-02
RMM:   8    -0.115906635567E+04   -0.86019E-04   -0.85121E-05  7490   0.110E-02
  12 F= -.11590664E+04 E0= -.11590664E+04  d E =-.224497E-02  mag=    12.0000
       N       E                     dE             d eps       ncg     rms          rms(c)
DAV:   1    -0.115906723294E+04   -0.96328E-03   -0.36323E-02 13008   0.222E-01    0.578E-02
RMM:   2    -0.115906730830E+04   -0.75359E-04   -0.10867E-03 11969   0.427E-02    0.519E-02
RMM:   3    -0.115906730499E+04    0.33008E-05   -0.45439E-05  7021   0.129E-02    0.331E-02
RMM:   4    -0.115906730450E+04    0.49546E-06   -0.28769E-05  6895   0.662E-03    0.185E-02
RMM:   5    -0.115906730917E+04   -0.46712E-05   -0.11805E-05  6314   0.465E-03    0.144E-02
RMM:   6    -0.115906731127E+04   -0.20947E-05   -0.39669E-06  4906   0.304E-03    0.932E-03
RMM:   7    -0.115906731394E+04   -0.26723E-05   -0.28619E-06  4785   0.271E-03    0.762E-03
RMM:   8    -0.115906731882E+04   -0.48842E-05   -0.50529E-06  5736   0.312E-03
  13 F= -.11590673E+04 E0= -.11590673E+04  d E =-.963151E-03  mag=    12.0000
       N       E                     dE             d eps       ncg     rms          rms(c)
DAV:   1    -0.115906814610E+04   -0.83217E-03   -0.32589E-01 12736   0.663E-01    0.165E-01
RMM:   2    -0.115906875625E+04   -0.61015E-03   -0.95450E-03 12255   0.124E-01    0.147E-01
RMM:   3    -0.115906870156E+04    0.54692E-04   -0.40857E-04 10125   0.352E-02    0.942E-02
RMM:   4    -0.115906863174E+04    0.69820E-04   -0.22098E-04  8264   0.168E-02    0.606E-02
RMM:   5    -0.115906861866E+04    0.13082E-04   -0.49905E-05  7180   0.104E-02    0.408E-02
RMM:   6    -0.115906862008E+04   -0.14199E-05   -0.20844E-05  6922   0.606E-03    0.163E-02
RMM:   7    -0.115906862156E+04   -0.14765E-05   -0.82932E-06  6233   0.454E-03    0.141E-02
RMM:   8    -0.115906862313E+04   -0.15736E-05   -0.59839E-06  6173   0.339E-03
  14 F= -.11590686E+04 E0= -.11590686E+04  d E =-.226746E-02  mag=    12.0000
       N       E                     dE             d eps       ncg     rms          rms(c)
DAV:   1    -0.115906863188E+04   -0.10323E-04   -0.32212E-03 12856   0.661E-02    0.171E-02
RMM:   2    -0.115906863781E+04   -0.59334E-05   -0.90196E-05  6922   0.133E-02    0.176E-02
RMM:   3    -0.115906863882E+04   -0.10066E-05   -0.10605E-05  6235   0.558E-03    0.108E-02
RMM:   4    -0.115906863872E+04    0.99128E-07   -0.29050E-06  4713   0.291E-03    0.105E-02
RMM:   5    -0.115906863885E+04   -0.13191E-06   -0.19488E-06  3991   0.249E-03    0.530E-03
RMM:   6    -0.115906863906E+04   -0.20477E-06   -0.11932E-06  3354   0.210E-03    0.256E-03
RMM:   7    -0.115906863919E+04   -0.13631E-06   -0.28976E-07  2280   0.186E-03    0.215E-03
RMM:   8    -0.115906863932E+04   -0.12899E-06   -0.12283E-07  1933   0.182E-03
  15 F= -.11590686E+04 E0= -.11590686E+04  d E =-.228365E-02  mag=    12.0000
       N       E                     dE             d eps       ncg     rms          rms(c)
DAV:   1    -0.115906910079E+04   -0.46159E-03   -0.60206E-02 12480   0.288E-01    0.614E-02
RMM:   2    -0.115906923782E+04   -0.13703E-03   -0.15818E-03 12108   0.502E-02    0.430E-02
RMM:   3    -0.115906923377E+04    0.40465E-05   -0.58455E-05  6741   0.156E-02    0.276E-02
RMM:   4    -0.115906922943E+04    0.43461E-05   -0.24992E-05  6496   0.631E-03    0.178E-02
RMM:   5    -0.115906922938E+04    0.44980E-07   -0.66266E-06  5590   0.421E-03    0.135E-02
RMM:   6    -0.115906922974E+04   -0.35280E-06   -0.28883E-06  4049   0.255E-03    0.378E-03
RMM:   7    -0.115906922991E+04   -0.17193E-06   -0.10505E-06  3134   0.248E-03    0.276E-03
RMM:   8    -0.115906923003E+04   -0.12465E-06   -0.32830E-07  2162   0.197E-03
  16 F= -.11590692E+04 E0= -.11590692E+04  d E =-.590710E-03  mag=    12.0000
       N       E                     dE             d eps       ncg     rms          rms(c)
DAV:   1    -0.115906907430E+04    0.15561E-03   -0.54232E-01 12736   0.863E-01    0.185E-01
RMM:   2    -0.115907030043E+04   -0.12261E-02   -0.14169E-02 12285   0.150E-01    0.129E-01
RMM:   3    -0.115907027514E+04    0.25289E-04   -0.63630E-04 10950   0.455E-02    0.831E-02
RMM:   4    -0.115907022653E+04    0.48604E-04   -0.18940E-04  7624   0.162E-02    0.456E-02
RMM:   5    -0.115907022468E+04    0.18573E-05   -0.49784E-05  7075   0.102E-02    0.325E-02
RMM:   6    -0.115907022718E+04   -0.25076E-05   -0.19280E-05  6896   0.676E-03    0.124E-02
RMM:   7    -0.115907022868E+04   -0.14980E-05   -0.10747E-05  6589   0.472E-03    0.111E-02
RMM:   8    -0.115907022983E+04   -0.11467E-05   -0.66473E-06  6081   0.406E-03
  17 F= -.11590702E+04 E0= -.11590702E+04  d E =-.159051E-02  mag=    12.0000
       N       E                     dE             d eps       ncg     rms          rms(c)
DAV:   1    -0.115907015854E+04    0.70145E-04   -0.68674E-02 12656   0.307E-01    0.658E-02
RMM:   2    -0.115907031778E+04   -0.15924E-03   -0.18315E-03 12126   0.537E-02    0.462E-02
RMM:   3    -0.115907031251E+04    0.52685E-05   -0.66510E-05  7052   0.157E-02    0.299E-02
RMM:   4    -0.115907030820E+04    0.43163E-05   -0.30339E-05  6954   0.702E-03    0.214E-02
RMM:   5    -0.115907030853E+04   -0.33123E-06   -0.95635E-06  6280   0.498E-03    0.166E-02
RMM:   6    -0.115907030930E+04   -0.76862E-06   -0.52120E-06  5432   0.301E-03    0.473E-03
RMM:   7    -0.115907030973E+04   -0.43394E-06   -0.22829E-06  4409   0.298E-03    0.488E-03
RMM:   8    -0.115907031013E+04   -0.40268E-06   -0.11972E-06  3239   0.216E-03
  18 F= -.11590703E+04 E0= -.11590703E+04  d E =-.167081E-02  mag=    12.0000
       N       E                     dE             d eps       ncg     rms          rms(c)
DAV:   1    -0.115907067519E+04   -0.36546E-03   -0.15552E-01 12624   0.462E-01    0.947E-02
RMM:   2    -0.115907101320E+04   -0.33801E-03   -0.40252E-03 12203   0.790E-02    0.675E-02
RMM:   3    -0.115907100055E+04    0.12650E-04   -0.15842E-04  7399   0.250E-02    0.430E-02
RMM:   4    -0.115907098911E+04    0.11440E-04   -0.68916E-05  7026   0.103E-02    0.227E-02
RMM:   5    -0.115907099028E+04   -0.11660E-05   -0.19003E-05  6788   0.654E-03    0.149E-02
RMM:   6    -0.115907099175E+04   -0.14736E-05   -0.86353E-06  6282   0.397E-03    0.778E-03
RMM:   7    -0.115907099274E+04   -0.98741E-06   -0.41090E-06  5219   0.342E-03    0.566E-03
RMM:   8    -0.115907099390E+04   -0.11645E-05   -0.31186E-06  4585   0.253E-03
  19 F= -.11590710E+04 E0= -.11590710E+04  d E =-.683772E-03  mag=    12.0000
       N       E                     dE             d eps       ncg     rms          rms(c)
DAV:   1    -0.115907063300E+04    0.35974E-03   -0.39365E-01 12768   0.734E-01    0.151E-01
RMM:   2    -0.115907148572E+04   -0.85272E-03   -0.10155E-02 12278   0.126E-01    0.107E-01
RMM:   3    -0.115907146071E+04    0.25009E-04   -0.45712E-04  9828   0.400E-02    0.690E-02
RMM:   4    -0.115907142884E+04    0.31863E-04   -0.15641E-04  7376   0.149E-02    0.363E-02
RMM:   5    -0.115907143083E+04   -0.19883E-05   -0.42242E-05  7010   0.909E-03    0.241E-02
RMM:   6    -0.115907143408E+04   -0.32521E-05   -0.17015E-05  6831   0.623E-03    0.125E-02
RMM:   7    -0.115907143665E+04   -0.25694E-05   -0.97288E-06  6500   0.433E-03    0.102E-02
RMM:   8    -0.115907143928E+04   -0.26289E-05   -0.63989E-06  6202   0.389E-03
  20 F= -.11590714E+04 E0= -.11590714E+04  d E =-.112915E-02  mag=    12.0000
       N       E                     dE             d eps       ncg     rms          rms(c)
DAV:   1    -0.115907152783E+04   -0.91179E-04   -0.29017E-01 12640   0.627E-01    0.118E-01
RMM:   2    -0.115907221525E+04   -0.68742E-03   -0.75531E-03 12225   0.109E-01    0.811E-02
RMM:   3    -0.115907220554E+04    0.97110E-05   -0.30058E-04  8421   0.318E-02    0.537E-02
RMM:   4    -0.115907219635E+04    0.91940E-05   -0.96951E-05  7183   0.125E-02    0.305E-02
RMM:   5    -0.115907220499E+04   -0.86394E-05   -0.35796E-05  6919   0.830E-03    0.161E-02
RMM:   6    -0.115907221011E+04   -0.51224E-05   -0.14516E-05  6672   0.535E-03    0.115E-02
RMM:   7    -0.115907221391E+04   -0.37974E-05   -0.80407E-06  6145   0.411E-03    0.994E-03
RMM:   8    -0.115907221912E+04   -0.52145E-05   -0.67911E-06  5980   0.355E-03
  21 F= -.11590722E+04 E0= -.11590722E+04  d E =-.779839E-03  mag=    12.0000
       N       E                     dE             d eps       ncg     rms          rms(c)
DAV:   1    -0.115907114737E+04    0.10665E-02   -0.67971E-01 12736   0.959E-01    0.181E-01
RMM:   2    -0.115907274767E+04   -0.16003E-02   -0.17621E-02 12283   0.167E-01    0.124E-01
RMM:   3    -0.115907273656E+04    0.11114E-04   -0.81205E-04 11438   0.502E-02    0.818E-02
RMM:   4    -0.115907270881E+04    0.27752E-04   -0.21470E-04  7929   0.170E-02    0.464E-02
RMM:   5    -0.115907272412E+04   -0.15313E-04   -0.66701E-05  7166   0.111E-02    0.218E-02
RMM:   6    -0.115907273357E+04   -0.94476E-05   -0.22527E-05  6909   0.711E-03    0.171E-02
RMM:   7    -0.115907274108E+04   -0.75123E-05   -0.13208E-05  6720   0.503E-03    0.145E-02
RMM:   8    -0.115907275150E+04   -0.10422E-04   -0.10956E-05  6663   0.491E-03
  22 F= -.11590728E+04 E0= -.11590728E+04  d E =-.131222E-02  mag=    12.0000
       N       E                     dE             d eps       ncg     rms          rms(c)
DAV:   1    -0.115907269960E+04    0.41483E-04   -0.36101E-01 12640   0.693E-01    0.121E-01
RMM:   2    -0.115907354534E+04   -0.84575E-03   -0.92997E-03 12247   0.121E-01    0.845E-02
RMM:   3    -0.115907353702E+04    0.83258E-05   -0.38485E-04  8999   0.349E-02    0.581E-02
RMM:   4    -0.115907353380E+04    0.32191E-05   -0.12436E-04  7302   0.136E-02    0.349E-02
RMM:   5    -0.115907354363E+04   -0.98336E-05   -0.37433E-05  6940   0.865E-03    0.289E-02
RMM:   6    -0.115907355034E+04   -0.67086E-05   -0.16052E-05  6718   0.578E-03    0.147E-02
RMM:   7    -0.115907355749E+04   -0.71522E-05   -0.99994E-06  6233   0.444E-03    0.135E-02
RMM:   8    -0.115907356673E+04   -0.92341E-05   -0.95894E-06  6341   0.431E-03
  23 F= -.11590736E+04 E0= -.11590736E+04  d E =-.815227E-03  mag=    12.0000
       N       E                     dE             d eps       ncg     rms          rms(c)
DAV:   1    -0.115907114483E+04    0.24127E-02   -0.13024E+00 12768   0.132E+00    0.230E-01
RMM:   2    -0.115907415960E+04   -0.30148E-02   -0.33390E-02 12292   0.229E-01    0.159E-01
RMM:   3    -0.115907413734E+04    0.22260E-04   -0.15436E-03 12461   0.670E-02    0.108E-01
RMM:   4    -0.115907410025E+04    0.37091E-04   -0.46083E-04 10524   0.234E-02    0.627E-02
RMM:   5    -0.115907410940E+04   -0.91576E-05   -0.94970E-05  7428   0.143E-02    0.386E-02
RMM:   6    -0.115907412572E+04   -0.16320E-04   -0.33570E-05  7024   0.844E-03    0.225E-02
RMM:   7    -0.115907414147E+04   -0.15744E-04   -0.20063E-05  6848   0.640E-03    0.180E-02
RMM:   8    -0.115907416176E+04   -0.20290E-04   -0.19226E-05  6835   0.610E-03
  24 F= -.11590742E+04 E0= -.11590742E+04  d E =-.141026E-02  mag=    12.0000
       N       E                     dE             d eps       ncg     rms          rms(c)
DAV:   1    -0.115907408673E+04    0.54737E-04   -0.26893E-01 12720   0.596E-01    0.102E-01
RMM:   2    -0.115907473200E+04   -0.64526E-03   -0.67694E-03 12191   0.103E-01    0.696E-02
RMM:   3    -0.115907473226E+04   -0.26666E-06   -0.28710E-04  8469   0.312E-02    0.475E-02
RMM:   4    -0.115907473592E+04   -0.36557E-05   -0.84452E-05  7162   0.116E-02    0.322E-02
RMM:   5    -0.115907474887E+04   -0.12949E-04   -0.34114E-05  6908   0.808E-03    0.199E-02
RMM:   6    -0.115907475620E+04   -0.73382E-05   -0.14896E-05  6616   0.521E-03    0.134E-02
RMM:   7    -0.115907476222E+04   -0.60148E-05   -0.86609E-06  6096   0.425E-03    0.117E-02
RMM:   8    -0.115907477238E+04   -0.10161E-04   -0.10127E-05  6184   0.407E-03
  25 F= -.11590748E+04 E0= -.11590748E+04  d E =-.610623E-03  mag=    12.0000
       N       E                     dE             d eps       ncg     rms          rms(c)
DAV:   1    -0.115907002149E+04    0.47407E-02   -0.24172E+00 12744   0.178E+00    0.304E-01
RMM:   2    -0.115907568312E+04   -0.56616E-02   -0.60298E-02 12292   0.306E-01    0.205E-01
RMM:   3    -0.115907566372E+04    0.19401E-04   -0.28047E-03 12420   0.918E-02    0.137E-01
RMM:   4    -0.115907560212E+04    0.61601E-04   -0.74333E-04 12216   0.291E-02    0.835E-02
RMM:   5    -0.115907562903E+04   -0.26916E-04   -0.22041E-04  8345   0.186E-02    0.336E-02
RMM:   6    -0.115907565472E+04   -0.25689E-04   -0.55131E-05  7227   0.110E-02    0.263E-02
RMM:   7    -0.115907567372E+04   -0.18997E-04   -0.31405E-05  7008   0.749E-03    0.227E-02
RMM:   8    -0.115907570765E+04   -0.33934E-04   -0.32666E-05  6988   0.808E-03
  26 F= -.11590757E+04 E0= -.11590757E+04  d E =-.154589E-02  mag=    12.0000
       N       E                     dE             d eps       ncg     rms          rms(c)
DAV:   1    -0.115907590949E+04   -0.23577E-03   -0.29488E-01 12688   0.621E-01    0.124E-01
RMM:   2    -0.115907658926E+04   -0.67977E-03   -0.75410E-03 12223   0.108E-01    0.918E-02
RMM:   3    -0.115907658332E+04    0.59408E-05   -0.34354E-04  9077   0.340E-02    0.592E-02
RMM:   4    -0.115907657271E+04    0.10611E-04   -0.11825E-04  7303   0.132E-02    0.375E-02
RMM:   5    -0.115907658319E+04   -0.10486E-04   -0.39255E-05  6936   0.866E-03    0.377E-02
RMM:   6    -0.115907659185E+04   -0.86613E-05   -0.19272E-05  6801   0.619E-03    0.153E-02
RMM:   7    -0.115907659934E+04   -0.74855E-05   -0.10715E-05  6182   0.448E-03    0.154E-02
RMM:   8    -0.115907660802E+04   -0.86801E-05   -0.90693E-06  6239   0.418E-03
  27 F= -.11590766E+04 E0= -.11590766E+04  d E =-.900369E-03  mag=    12.0000
