       N       E                     dE             d eps       ncg     rms          rms(c)
DAV:   1    -0.116121378491E+04   -0.11612E+04   -0.27027E-05  7736   0.113E-02    0.120E-02
RMM:   2    -0.116121379426E+04   -0.93583E-05   -0.18721E-05  6681   0.770E-03    0.161E-02
RMM:   3    -0.116121379766E+04   -0.33926E-05   -0.10840E-05  5919   0.364E-03    0.848E-03
RMM:   4    -0.116121379924E+04   -0.15803E-05   -0.51361E-06  5513   0.407E-03    0.910E-03
RMM:   5    -0.116121380161E+04   -0.23726E-05   -0.34920E-06  3849   0.259E-03    0.876E-03
RMM:   6    -0.116121380305E+04   -0.14417E-05   -0.19161E-06  3399   0.266E-03    0.783E-03
RMM:   7    -0.116121380918E+04   -0.61235E-05   -0.37366E-06  4006   0.281E-03    0.105E-02
RMM:   8    -0.116121382460E+04   -0.15423E-04   -0.13980E-05  5041   0.430E-03
   1 F= -.11612138E+04 E0= -.11612138E+04  d E =-.116121E+04  mag=     8.0000
       N       E                     dE             d eps       ncg     rms          rms(c)
DAV:   1    -0.116121414949E+04   -0.34031E-03   -0.81733E-01 12848   0.103E+00    0.321E-01
RMM:   2    -0.116121607036E+04   -0.19209E-02   -0.23790E-02 12320   0.204E-01    0.266E-01
RMM:   3    -0.116121605343E+04    0.16934E-04   -0.13561E-03 12300   0.683E-02    0.165E-01
RMM:   4    -0.116121588895E+04    0.16448E-03   -0.58226E-04 10664   0.283E-02    0.824E-02
RMM:   5    -0.116121586483E+04    0.24118E-04   -0.11453E-04  8035   0.172E-02    0.292E-02
RMM:   6    -0.116121586861E+04   -0.37734E-05   -0.33194E-05  7137   0.870E-03    0.194E-02
RMM:   7    -0.116121587163E+04   -0.30263E-05   -0.14439E-05  6863   0.618E-03    0.170E-02
RMM:   8    -0.116121587584E+04   -0.42109E-05   -0.10507E-05  6732   0.466E-03
   2 F= -.11612159E+04 E0= -.11612159E+04  d E =-.205125E-02  mag=     8.0000
       N       E                     dE             d eps       ncg     rms          rms(c)
DAV:   1    -0.116121698812E+04   -0.11165E-02   -0.16195E-01 12608   0.465E-01    0.132E-01
RMM:   2    -0.116121717096E+04   -0.18284E-03   -0.53698E-03 12243   0.960E-02    0.135E-01
RMM:   3    -0.116121711517E+04    0.55796E-04   -0.25647E-04  8689   0.323E-02    0.916E-02
RMM:   4    -0.116121705468E+04    0.60490E-04   -0.18860E-04  7908   0.165E-02    0.530E-02
RMM:   5    -0.116121704183E+04    0.12851E-04   -0.55820E-05  7116   0.107E-02    0.256E-02
RMM:   6    -0.116121704407E+04   -0.22450E-05   -0.18776E-05  6631   0.642E-03    0.178E-02
RMM:   7    -0.116121704613E+04   -0.20562E-05   -0.85406E-06  5847   0.449E-03    0.129E-02
RMM:   8    -0.116121704986E+04   -0.37322E-05   -0.73404E-06  5833   0.386E-03
   3 F= -.11612170E+04 E0= -.11612170E+04  d E =-.117402E-02  mag=     8.0000
       N       E                     dE             d eps       ncg     rms          rms(c)
DAV:   1    -0.116121753041E+04   -0.48428E-03   -0.23205E-01 12648   0.558E-01    0.117E-01
RMM:   2    -0.116121806351E+04   -0.53310E-03   -0.59558E-03 12987   0.995E-02    0.826E-02
RMM:   3    -0.116121805419E+04    0.93208E-05   -0.25230E-04  8141   0.305E-02    0.529E-02
RMM:   4    -0.116121803856E+04    0.15627E-04   -0.73119E-05  7051   0.120E-02    0.271E-02
RMM:   5    -0.116121804005E+04   -0.14904E-05   -0.30606E-05  6895   0.801E-03    0.925E-03
RMM:   6    -0.116121804240E+04   -0.23443E-05   -0.11325E-05  6596   0.524E-03    0.721E-03
RMM:   7    -0.116121804418E+04   -0.17798E-05   -0.63223E-06  5572   0.372E-03    0.583E-03
RMM:   8    -0.116121804729E+04   -0.31170E-05   -0.56891E-06  5072   0.344E-03
   4 F= -.11612180E+04 E0= -.11612180E+04  d E =-.997433E-03  mag=     8.0000
       N       E                     dE             d eps       ncg     rms          rms(c)
DAV:   1    -0.116121835897E+04   -0.31480E-03   -0.23259E-01 12560   0.556E-01    0.117E-01
RMM:   2    -0.116121891948E+04   -0.56050E-03   -0.57449E-03 12937   0.955E-02    0.750E-02
RMM:   3    -0.116121891545E+04    0.40251E-05   -0.23842E-04  7993   0.302E-02    0.465E-02
RMM:   4    -0.116121890392E+04    0.11528E-04   -0.67093E-05  7034   0.116E-02    0.224E-02
RMM:   5    -0.116121890704E+04   -0.31203E-05   -0.25394E-05  6858   0.740E-03    0.924E-03
RMM:   6    -0.116121890907E+04   -0.20225E-05   -0.10136E-05  6535   0.505E-03    0.618E-03
RMM:   7    -0.116121891056E+04   -0.14965E-05   -0.59164E-06  5298   0.361E-03    0.518E-03
RMM:   8    -0.116121891235E+04   -0.17932E-05   -0.40704E-06  4714   0.324E-03
   5 F= -.11612189E+04 E0= -.11612189E+04  d E =-.865062E-03  mag=     8.0000
       N       E                     dE             d eps       ncg     rms          rms(c)
DAV:   1    -0.116121904550E+04   -0.13494E-03   -0.37323E-01 12696   0.702E-01    0.138E-01
RMM:   2    -0.116121992689E+04   -0.88139E-03   -0.91277E-03 12993   0.119E-01    0.894E-02
RMM:   3    -0.116121991780E+04    0.90869E-05   -0.38706E-04  8751   0.375E-02    0.560E-02
RMM:   4    -0.116121989998E+04    0.17819E-04   -0.92855E-05  7101   0.139E-02    0.276E-02
RMM:   5    -0.116121990380E+04   -0.38143E-05   -0.38030E-05  6961   0.901E-03    0.884E-03
RMM:   6    -0.116121990641E+04   -0.26079E-05   -0.14615E-05  6730   0.603E-03    0.630E-03
RMM:   7    -0.116121990823E+04   -0.18226E-05   -0.88277E-06  5998   0.424E-03    0.523E-03
RMM:   8    -0.116121991031E+04   -0.20860E-05   -0.58753E-06  5352   0.376E-03
   6 F= -.11612199E+04 E0= -.11612199E+04  d E =-.997960E-03  mag=     8.0000
       N       E                     dE             d eps       ncg     rms          rms(c)
DAV:   1    -0.116122008297E+04   -0.17474E-03   -0.24066E-01 12496   0.562E-01    0.107E-01
RMM:   2    -0.116122064539E+04   -0.56242E-03   -0.58920E-03 12901   0.954E-02    0.682E-02
RMM:   3    -0.116122063582E+04    0.95757E-05   -0.24254E-04  7962   0.302E-02    0.432E-02
RMM:   4    -0.116122062519E+04    0.10623E-04   -0.67178E-05  7032   0.115E-02    0.210E-02
RMM:   5    -0.116122062848E+04   -0.32814E-05   -0.24829E-05  6868   0.732E-03    0.927E-03
RMM:   6    -0.116122063044E+04   -0.19633E-05   -0.10476E-05  6495   0.505E-03    0.628E-03
RMM:   7    -0.116122063191E+04   -0.14680E-05   -0.61049E-06  5207   0.372E-03    0.523E-03
RMM:   8    -0.116122063342E+04   -0.15145E-05   -0.41575E-06  4671   0.328E-03
   7 F= -.11612206E+04 E0= -.11612206E+04  d E =-.723107E-03  mag=     8.0000
       N       E                     dE             d eps       ncg     rms          rms(c)
DAV:   1    -0.116122080901E+04   -0.17710E-03   -0.21335E-01 12432   0.528E-01    0.983E-02
RMM:   2    -0.116122130915E+04   -0.50015E-03   -0.52014E-03 12948   0.895E-02    0.625E-02
RMM:   3    -0.116122130053E+04    0.86247E-05   -0.20937E-04  7806   0.280E-02    0.396E-02
RMM:   4    -0.116122129233E+04    0.82014E-05   -0.57506E-05  6996   0.108E-02    0.191E-02
RMM:   5    -0.116122129553E+04   -0.32045E-05   -0.21562E-05  6795   0.684E-03    0.937E-03
RMM:   6    -0.116122129724E+04   -0.17107E-05   -0.90513E-06  6337   0.475E-03    0.614E-03
RMM:   7    -0.116122129859E+04   -0.13455E-05   -0.53216E-06  4977   0.350E-03    0.519E-03
RMM:   8    -0.116122129994E+04   -0.13554E-05   -0.33584E-06  4432   0.308E-03
   8 F= -.11612213E+04 E0= -.11612213E+04  d E =-.666522E-03  mag=     8.0000
