       N       E                     dE             d eps       ncg     rms          rms(c)
DAV:   1    -0.116036967475E+04   -0.11604E+04   -0.55803E-06  7584   0.593E-03    0.821E-03
RMM:   2    -0.116036968524E+04   -0.10493E-04   -0.15641E-05  4257   0.410E-03    0.103E-02
RMM:   3    -0.116036968593E+04   -0.69405E-06   -0.19485E-06  2115   0.194E-03    0.105E-02
RMM:   4    -0.116036967838E+04    0.75498E-05   -0.14741E-06  2695   0.219E-03    0.983E-03
RMM:   5    -0.116036966750E+04    0.10881E-04   -0.39729E-06  3316   0.280E-03    0.106E-02
RMM:   6    -0.116036965023E+04    0.17275E-04   -0.10111E-05  3989   0.377E-03    0.127E-02
RMM:   7    -0.116036963497E+04    0.15262E-04   -0.97927E-06  3406   0.310E-03    0.131E-02
RMM:   8    -0.116036963245E+04    0.25113E-05   -0.15983E-06  1874   0.198E-03
   1 F= -.11603696E+04 E0= -.11603696E+04  d E =-.116037E+04  mag=     8.0000
       N       E                     dE             d eps       ncg     rms          rms(c)
DAV:   1    -0.116037070873E+04   -0.10738E-02   -0.46766E-01 12352   0.750E-01    0.185E-01
RMM:   2    -0.116037185592E+04   -0.11472E-02   -0.13912E-02 12319   0.152E-01    0.154E-01
RMM:   3    -0.116037183690E+04    0.19021E-04   -0.86088E-04 10951   0.494E-02    0.103E-01
RMM:   4    -0.116037177005E+04    0.66853E-04   -0.20489E-04  8227   0.184E-02    0.556E-02
RMM:   5    -0.116037176385E+04    0.61960E-05   -0.73161E-05  7221   0.118E-02    0.161E-02
RMM:   6    -0.116037176541E+04   -0.15529E-05   -0.14932E-05  6776   0.670E-03    0.122E-02
RMM:   7    -0.116037176709E+04   -0.16849E-05   -0.76321E-06  5713   0.354E-03    0.833E-03
RMM:   8    -0.116037176963E+04   -0.25369E-05   -0.45880E-06  5482   0.340E-03
   2 F= -.11603718E+04 E0= -.11603718E+04  d E =-.213717E-02  mag=     8.0000
       N       E                     dE             d eps       ncg     rms          rms(c)
DAV:   1    -0.116037275080E+04   -0.98371E-03   -0.89920E-02 12176   0.340E-01    0.812E-02
RMM:   2    -0.116037289135E+04   -0.14055E-03   -0.24953E-03 12329   0.645E-02    0.655E-02
RMM:   3    -0.116037287071E+04    0.20644E-04   -0.11867E-04  7288   0.225E-02    0.432E-02
RMM:   4    -0.116037285175E+04    0.18956E-04   -0.72550E-05  7088   0.109E-02    0.224E-02
RMM:   5    -0.116037285144E+04    0.30820E-06   -0.20941E-05  6523   0.673E-03    0.175E-02
RMM:   6    -0.116037285305E+04   -0.16129E-05   -0.80871E-06  5875   0.438E-03    0.999E-03
RMM:   7    -0.116037285475E+04   -0.16917E-05   -0.36571E-06  4754   0.306E-03    0.802E-03
RMM:   8    -0.116037285748E+04   -0.27291E-05   -0.38414E-06  4407   0.289E-03
   3 F= -.11603729E+04 E0= -.11603729E+04  d E =-.108785E-02  mag=     8.0000
