       N       E                     dE             d eps       ncg     rms          rms(c)
DAV:   1    -0.116019281543E+04   -0.11602E+04   -0.17705E-05  7424   0.792E-03    0.858E-03
RMM:   2    -0.116019281611E+04   -0.68704E-06   -0.10145E-05  6284   0.504E-03    0.118E-02
RMM:   3    -0.116019281654E+04   -0.42428E-06   -0.53660E-06  5182   0.309E-03    0.353E-03
RMM:   4    -0.116019281683E+04   -0.29188E-06   -0.28774E-06  4159   0.311E-03    0.350E-03
RMM:   5    -0.116019281704E+04   -0.21297E-06   -0.18140E-06  3063   0.227E-03    0.206E-03
RMM:   6    -0.116019281719E+04   -0.14804E-06   -0.95055E-07  2468   0.234E-03    0.129E-03
RMM:   7    -0.116019281731E+04   -0.11893E-06   -0.56330E-07  2047   0.202E-03    0.132E-03
RMM:   8    -0.116019281742E+04   -0.11091E-06   -0.46213E-07  1876   0.208E-03
   1 F= -.11601928E+04 E0= -.11601928E+04  d E =-.116019E+04  mag=    10.0000
       N       E                     dE             d eps       ncg     rms          rms(c)
DAV:   1    -0.116019328215E+04   -0.46484E-03   -0.38846E-01 12872   0.739E-01    0.191E-01
RMM:   2    -0.116019401955E+04   -0.73740E-03   -0.11313E-02 12315   0.139E-01    0.180E-01
RMM:   3    -0.116019396538E+04    0.54172E-04   -0.52428E-04 10755   0.442E-02    0.120E-01
RMM:   4    -0.116019389341E+04    0.71969E-04   -0.28241E-04  9603   0.193E-02    0.685E-02
RMM:   5    -0.116019387298E+04    0.20434E-04   -0.57608E-05  7220   0.121E-02    0.266E-02
RMM:   6    -0.116019387455E+04   -0.15756E-05   -0.20469E-05  6965   0.624E-03    0.134E-02
RMM:   7    -0.116019387515E+04   -0.60358E-06   -0.83341E-06  6540   0.460E-03    0.961E-03
RMM:   8    -0.116019387561E+04   -0.45763E-06   -0.44289E-06  5733   0.339E-03
   2 F= -.11601939E+04 E0= -.11601939E+04  d E =-.105819E-02  mag=    10.0000
       N       E                     dE             d eps       ncg     rms          rms(c)
DAV:   1    -0.116019442508E+04   -0.54992E-03   -0.81024E-02 12448   0.332E-01    0.910E-02
RMM:   2    -0.116019453154E+04   -0.10646E-03   -0.26171E-03 12169   0.666E-02    0.932E-02
RMM:   3    -0.116019450325E+04    0.28287E-04   -0.10259E-04  7218   0.208E-02    0.641E-02
RMM:   4    -0.116019447615E+04    0.27102E-04   -0.73398E-05  7108   0.107E-02    0.430E-02
RMM:   5    -0.116019446893E+04    0.72155E-05   -0.25976E-05  6799   0.764E-03    0.231E-02
RMM:   6    -0.116019446903E+04   -0.90513E-07   -0.10818E-05  6105   0.470E-03    0.117E-02
RMM:   7    -0.116019446937E+04   -0.34012E-06   -0.45030E-06  5301   0.368E-03    0.903E-03
RMM:   8    -0.116019446959E+04   -0.21994E-06   -0.25364E-06  4210   0.256E-03
   3 F= -.11601945E+04 E0= -.11601945E+04  d E =-.593973E-03  mag=    10.0000
       N       E                     dE             d eps       ncg     rms          rms(c)
DAV:   1    -0.116019476450E+04   -0.29513E-03   -0.98336E-02 12640   0.370E-01    0.753E-02
RMM:   2    -0.116019497831E+04   -0.21381E-03   -0.25535E-03 12476   0.641E-02    0.543E-02
RMM:   3    -0.116019496989E+04    0.84231E-05   -0.10242E-04  6983   0.218E-02    0.345E-02
RMM:   4    -0.116019496363E+04    0.62632E-05   -0.44581E-05  6856   0.837E-03    0.180E-02
RMM:   5    -0.116019496347E+04    0.15389E-06   -0.11927E-05  6626   0.506E-03    0.700E-03
RMM:   6    -0.116019496404E+04   -0.56589E-06   -0.47379E-06  5487   0.336E-03    0.478E-03
RMM:   7    -0.116019496429E+04   -0.25495E-06   -0.21831E-06  3935   0.272E-03    0.304E-03
RMM:   8    -0.116019496447E+04   -0.17199E-06   -0.12336E-06  3153   0.231E-03
   4 F= -.11601950E+04 E0= -.11601950E+04  d E =-.494880E-03  mag=    10.0000
       N       E                     dE             d eps       ncg     rms          rms(c)
DAV:   1    -0.116019517567E+04   -0.21137E-03   -0.13762E-01 12592   0.435E-01    0.832E-02
RMM:   2    -0.116019548511E+04   -0.30944E-03   -0.34604E-03 12473   0.739E-02    0.540E-02
RMM:   3    -0.116019547791E+04    0.71971E-05   -0.14139E-04  7231   0.254E-02    0.344E-02
RMM:   4    -0.116019547145E+04    0.64546E-05   -0.52998E-05  6929   0.928E-03    0.173E-02
RMM:   5    -0.116019547256E+04   -0.11083E-05   -0.14024E-05  6727   0.563E-03    0.103E-02
RMM:   6    -0.116019547333E+04   -0.76339E-06   -0.65954E-06  6155   0.392E-03    0.562E-03
RMM:   7    -0.116019547372E+04   -0.39353E-06   -0.33399E-06  4580   0.304E-03    0.396E-03
RMM:   8    -0.116019547396E+04   -0.23773E-06   -0.20072E-06  3794   0.254E-03
   5 F= -.11601955E+04 E0= -.11601955E+04  d E =-.509492E-03  mag=    10.0000
       N       E                     dE             d eps       ncg     rms          rms(c)
DAV:   1    -0.116019564158E+04   -0.16786E-03   -0.14254E-01 12536   0.441E-01    0.817E-02
RMM:   2    -0.116019596706E+04   -0.32548E-03   -0.35364E-03 12528   0.739E-02    0.523E-02
RMM:   3    -0.116019596006E+04    0.69981E-05   -0.14180E-04  7262   0.248E-02    0.331E-02
RMM:   4    -0.116019595406E+04    0.60050E-05   -0.49054E-05  6924   0.903E-03    0.162E-02
RMM:   5    -0.116019595530E+04   -0.12436E-05   -0.13935E-05  6697   0.537E-03    0.821E-03
RMM:   6    -0.116019595600E+04   -0.70245E-06   -0.59049E-06  5818   0.382E-03    0.400E-03
RMM:   7    -0.116019595640E+04   -0.39798E-06   -0.31773E-06  4446   0.290E-03    0.276E-03
RMM:   8    -0.116019595663E+04   -0.22867E-06   -0.17239E-06  3593   0.257E-03
   6 F= -.11601960E+04 E0= -.11601960E+04  d E =-.482673E-03  mag=    10.0000
