       N       E                     dE             d eps       ncg     rms          rms(c)
DAV:   1    -0.115976032594E+04   -0.11598E+04   -0.13429E-05  7776   0.105E-02    0.182E-02
RMM:   2    -0.115976032512E+04    0.82763E-06   -0.96272E-06  5558   0.484E-03    0.260E-02
RMM:   3    -0.115976032538E+04   -0.25811E-06   -0.24208E-06  4264   0.269E-03    0.250E-03
RMM:   4    -0.115976032546E+04   -0.88505E-07   -0.90646E-07  2923   0.221E-03    0.182E-03
RMM:   5    -0.115976032549E+04   -0.25728E-07   -0.41781E-07  2182   0.197E-03    0.130E-03
RMM:   6    -0.115976032550E+04   -0.14756E-07   -0.14236E-07  1415   0.179E-03    0.987E-04
RMM:   7    -0.115976032553E+04   -0.21289E-07   -0.88310E-08  1313   0.177E-03    0.530E-04
RMM:   8    -0.115976032554E+04   -0.17957E-07   -0.57329E-08  1117   0.177E-03
   1 F= -.11597603E+04 E0= -.11597603E+04  d E =-.115976E+04  mag=    10.0000
       N       E                     dE             d eps       ncg     rms          rms(c)
DAV:   1    -0.115976010095E+04    0.22458E-03   -0.19504E-01 12480   0.504E-01    0.176E-01
RMM:   2    -0.115976048188E+04   -0.38093E-03   -0.67104E-03 12224   0.104E-01    0.172E-01
RMM:   3    -0.115976042053E+04    0.61357E-04   -0.23594E-04  8518   0.284E-02    0.118E-01
RMM:   4    -0.115976036109E+04    0.59440E-04   -0.21286E-04  8094   0.174E-02    0.590E-02
RMM:   5    -0.115976034923E+04    0.11856E-04   -0.61818E-05  7292   0.115E-02    0.507E-02
RMM:   6    -0.115976035003E+04   -0.79782E-06   -0.16474E-05  6579   0.614E-03    0.144E-02
RMM:   7    -0.115976035034E+04   -0.31658E-06   -0.67849E-06  5596   0.385E-03    0.129E-02
RMM:   8    -0.115976035062E+04   -0.28078E-06   -0.45067E-06  5503   0.336E-03
   2 F= -.11597604E+04 E0= -.11597604E+04  d E =-.250810E-04  mag=    10.0000
       N       E                     dE             d eps       ncg     rms          rms(c)
DAV:   1    -0.115976085212E+04   -0.50178E-03   -0.44046E-02 12208   0.236E-01    0.930E-02
RMM:   2    -0.115976088228E+04   -0.30159E-04   -0.17551E-03 11978   0.516E-02    0.107E-01
RMM:   3    -0.115976085135E+04    0.30926E-04   -0.57719E-05  7083   0.136E-02    0.799E-02
RMM:   4    -0.115976082540E+04    0.25957E-04   -0.94434E-05  7164   0.106E-02    0.371E-02
RMM:   5    -0.115976081742E+04    0.79771E-05   -0.21909E-05  6544   0.662E-03    0.213E-02
RMM:   6    -0.115976081711E+04    0.30619E-06   -0.58490E-06  5249   0.345E-03    0.122E-02
RMM:   7    -0.115976081698E+04    0.13057E-06   -0.22609E-06  4033   0.270E-03    0.787E-03
RMM:   8    -0.115976081704E+04   -0.61264E-07   -0.14799E-06  3273   0.220E-03
   3 F= -.11597608E+04 E0= -.11597608E+04  d E =-.466418E-03  mag=    10.0000
