       N       E                     dE             d eps       ncg     rms          rms(c)
DAV:   1    -0.115955556447E+04   -0.11596E+04   -0.19369E-06  7088   0.230E-03    0.254E-03
RMM:   2    -0.115955556488E+04   -0.41297E-06   -0.48101E-07  1807   0.153E-03    0.206E-03
RMM:   3    -0.115955556507E+04   -0.18894E-06   -0.17044E-07  1183   0.137E-03    0.207E-03
RMM:   4    -0.115955556497E+04    0.10189E-06   -0.45225E-08   922   0.131E-03    0.198E-03
RMM:   5    -0.115955556466E+04    0.30937E-06   -0.34474E-08   891   0.132E-03    0.229E-03
RMM:   6    -0.115955556466E+04   -0.57771E-08   -0.12290E-08   781   0.130E-03    0.220E-03
RMM:   7    -0.115955556404E+04    0.62097E-06   -0.21939E-07  1241   0.151E-03    0.284E-03
RMM:   8    -0.115955556346E+04    0.58814E-06   -0.33921E-07  1181   0.155E-03
   1 F= -.11595556E+04 E0= -.11595556E+04  d E =-.115956E+04  mag=    10.0000
       N       E                     dE             d eps       ncg     rms          rms(c)
DAV:   1    -0.115955590331E+04   -0.33926E-03   -0.42149E-01 12896   0.764E-01    0.217E-01
RMM:   2    -0.115955666523E+04   -0.76193E-03   -0.13200E-02 12295   0.150E-01    0.233E-01
RMM:   3    -0.115955658710E+04    0.78130E-04   -0.61089E-04 11308   0.459E-02    0.160E-01
RMM:   4    -0.115955650361E+04    0.83495E-04   -0.31541E-04 10006   0.204E-02    0.905E-02
RMM:   5    -0.115955646414E+04    0.39472E-04   -0.91969E-05  8121   0.141E-02    0.376E-02
RMM:   6    -0.115955646656E+04   -0.24252E-05   -0.22090E-05  7009   0.726E-03    0.144E-02
RMM:   7    -0.115955646743E+04   -0.86514E-06   -0.98505E-06  6446   0.471E-03    0.115E-02
RMM:   8    -0.115955646827E+04   -0.84637E-06   -0.51553E-06  5931   0.360E-03
   2 F= -.11595565E+04 E0= -.11595565E+04  d E =-.904818E-03  mag=    10.0000
       N       E                     dE             d eps       ncg     rms          rms(c)
DAV:   1    -0.115955706112E+04   -0.59369E-03   -0.10065E-01 12320   0.369E-01    0.115E-01
RMM:   2    -0.115955721887E+04   -0.15775E-03   -0.34565E-03 12215   0.763E-02    0.131E-01
RMM:   3    -0.115955718778E+04    0.31095E-04   -0.12584E-04  7489   0.225E-02    0.942E-02
RMM:   4    -0.115955715969E+04    0.28090E-04   -0.85129E-05  7189   0.118E-02    0.527E-02
RMM:   5    -0.115955715141E+04    0.82730E-05   -0.42241E-05  6888   0.899E-03    0.490E-02
RMM:   6    -0.115955715209E+04   -0.67319E-06   -0.12929E-05  6183   0.581E-03    0.105E-02
RMM:   7    -0.115955715243E+04   -0.34169E-06   -0.45815E-06  5019   0.327E-03    0.102E-02
RMM:   8    -0.115955715282E+04   -0.38899E-06   -0.25162E-06  4568   0.283E-03
   3 F= -.11595572E+04 E0= -.11595572E+04  d E =-.684543E-03  mag=    10.0000
