       N       E                     dE             d eps       ncg     rms          rms(c)
DAV:   1    -0.116441773377E+04   -0.11644E+04   -0.14215E-05  3864   0.672E-03    0.936E-03
RMM:   2    -0.116441773390E+04   -0.12650E-06   -0.95378E-06  3134   0.356E-03    0.106E-02
RMM:   3    -0.116441773351E+04    0.39206E-06   -0.36772E-06  2190   0.244E-03    0.215E-03
RMM:   4    -0.116441773364E+04   -0.13024E-06   -0.15052E-06  1234   0.207E-03    0.188E-03
RMM:   5    -0.116441773370E+04   -0.67696E-07   -0.91801E-07  1005   0.198E-03    0.122E-03
RMM:   6    -0.116441773375E+04   -0.43030E-07   -0.43739E-07   752   0.189E-03    0.836E-04
RMM:   7    -0.116441773377E+04   -0.27023E-07   -0.23863E-07   645   0.186E-03    0.786E-04
RMM:   8    -0.116441773379E+04   -0.17346E-07   -0.17395E-07   600   0.184E-03
   1 F= -.11644177E+04 E0= -.11644138E+04  d E =-.116442E+04  mag=    -1.9612
       N       E                     dE             d eps       ncg     rms          rms(c)
DAV:   1    -0.116441840116E+04   -0.66738E-03   -0.47847E-01  6256   0.777E-01    0.146E-01
RMM:   2    -0.116441970424E+04   -0.13031E-02   -0.12225E-02  6111   0.133E-01    0.175E-01
RMM:   3    -0.116441966678E+04    0.37461E-04   -0.55336E-04  5217   0.314E-02    0.122E-01
RMM:   4    -0.116441966566E+04    0.11159E-05   -0.17278E-04  3949   0.140E-02    0.789E-02
RMM:   5    -0.116441970074E+04   -0.35077E-04   -0.13296E-04  3966   0.111E-02    0.400E-02
RMM:   6    -0.116441971655E+04   -0.15812E-04   -0.34736E-05  3556   0.574E-03    0.324E-02
RMM:   7    -0.116441973118E+04   -0.14632E-04   -0.22966E-05  3446   0.486E-03    0.240E-02
RMM:   8    -0.116441975232E+04   -0.21140E-04   -0.40405E-05  3687   0.605E-03
   2 F= -.11644198E+04 E0= -.11644160E+04  d E =-.201853E-02  mag=    -1.9616
       N       E                     dE             d eps       ncg     rms          rms(c)
DAV:   1    -0.116442011037E+04   -0.37919E-03   -0.11593E-02  6368   0.121E-01    0.294E-02
RMM:   2    -0.116442015949E+04   -0.49114E-04   -0.31453E-04  4233   0.224E-02    0.478E-02
RMM:   3    -0.116442016133E+04   -0.18448E-05   -0.21689E-05  3173   0.667E-03    0.432E-02
RMM:   4    -0.116442017533E+04   -0.14001E-04   -0.61018E-06  2624   0.323E-03    0.499E-02
RMM:   5    -0.116442017808E+04   -0.27485E-05   -0.29754E-06  1914   0.222E-03    0.466E-02
RMM:   6    -0.116442017762E+04    0.46148E-06   -0.20796E-05  2981   0.443E-03    0.328E-02
RMM:   7    -0.116442017782E+04   -0.20007E-06   -0.18685E-05  2832   0.393E-03    0.204E-02
RMM:   8    -0.116442017926E+04   -0.14445E-05   -0.54038E-06  2185   0.253E-03
   3 F= -.11644202E+04 E0= -.11644165E+04  d E =-.426944E-03  mag=    -1.9617
       N       E                     dE             d eps       ncg     rms          rms(c)
DAV:   1    -0.116441921222E+04    0.96560E-03   -0.52877E-02  6144   0.248E-01    0.883E-02
RMM:   2    -0.116441954055E+04   -0.32833E-03   -0.17020E-03  5716   0.497E-02    0.150E-01
RMM:   3    -0.116441952519E+04    0.15354E-04   -0.49587E-05  3459   0.974E-03    0.133E-01
RMM:   4    -0.116441952678E+04   -0.15885E-05   -0.77699E-05  3593   0.869E-03    0.782E-02
RMM:   5    -0.116441955871E+04   -0.31929E-04   -0.76335E-05  3628   0.759E-03    0.469E-02
RMM:   6    -0.116441957130E+04   -0.12592E-04   -0.19057E-05  2611   0.370E-03    0.391E-02
RMM:   7    -0.116441959175E+04   -0.20451E-04   -0.27373E-05  3143   0.505E-03    0.249E-02
RMM:   8    -0.116441960945E+04   -0.17692E-04   -0.37696E-05  3452   0.549E-03
   4 F= -.11644196E+04 E0= -.11644158E+04  d E =0.569817E-03  mag=    -1.9613
       N       E                     dE             d eps       ncg     rms          rms(c)
DAV:   1    -0.116441952486E+04    0.66892E-04   -0.17814E-01  6240   0.477E-01    0.103E-01
RMM:   2    -0.116442012357E+04   -0.59870E-03   -0.46526E-03  6077   0.826E-02    0.131E-01
RMM:   3    -0.116442011252E+04    0.11047E-04   -0.17497E-04  3964   0.193E-02    0.105E-01
RMM:   4    -0.116442013474E+04   -0.22224E-04   -0.11591E-04  3812   0.114E-02    0.651E-02
RMM:   5    -0.116442017504E+04   -0.40297E-04   -0.71230E-05  3773   0.787E-03    0.440E-02
RMM:   6    -0.116442019103E+04   -0.15991E-04   -0.27300E-05  3229   0.478E-03    0.347E-02
RMM:   7    -0.116442020824E+04   -0.17207E-04   -0.20168E-05  3195   0.433E-03    0.255E-02
RMM:   8    -0.116442023215E+04   -0.23913E-04   -0.52528E-05  3719   0.676E-03
   5 F= -.11644202E+04 E0= -.11644163E+04  d E =-.622704E-03  mag=    -1.9610
       N       E                     dE             d eps       ncg     rms          rms(c)
DAV:   1    -0.116442075093E+04   -0.54270E-03   -0.37741E-01  6256   0.692E-01    0.115E-01
RMM:   2    -0.116442162098E+04   -0.87004E-03   -0.90966E-03  6097   0.113E-01    0.958E-02
RMM:   3    -0.116442159872E+04    0.22256E-04   -0.38395E-04  4678   0.279E-02    0.607E-02
RMM:   4    -0.116442158976E+04    0.89631E-05   -0.91093E-05  3600   0.105E-02    0.444E-02
RMM:   5    -0.116442159196E+04   -0.22018E-05   -0.58967E-05  3593   0.806E-03    0.198E-02
RMM:   6    -0.116442159676E+04   -0.48019E-05   -0.18263E-05  3351   0.446E-03    0.150E-02
RMM:   7    -0.116442159910E+04   -0.23371E-05   -0.89559E-06  2925   0.342E-03    0.129E-02
RMM:   8    -0.116442160334E+04   -0.42404E-05   -0.94712E-06  2919   0.330E-03
   6 F= -.11644216E+04 E0= -.11644175E+04  d E =-.137119E-02  mag=    -1.9610
       N       E                     dE             d eps       ncg     rms          rms(c)
DAV:   1    -0.116442183836E+04   -0.23927E-03   -0.64390E-01  6352   0.907E-01    0.145E-01
RMM:   2    -0.116442325733E+04   -0.14190E-02   -0.15428E-02  6144   0.147E-01    0.960E-02
RMM:   3    -0.116442322046E+04    0.36862E-04   -0.61958E-04  5032   0.354E-02    0.637E-02
RMM:   4    -0.116442318647E+04    0.33993E-04   -0.16865E-04  3739   0.134E-02    0.323E-02
RMM:   5    -0.116442318243E+04    0.40424E-05   -0.47191E-05  3472   0.728E-03    0.103E-02
RMM:   6    -0.116442318427E+04   -0.18444E-05   -0.16759E-05  3349   0.434E-03    0.699E-03
RMM:   7    -0.116442318506E+04   -0.79050E-06   -0.88011E-06  2932   0.328E-03    0.552E-03
RMM:   8    -0.116442318559E+04   -0.52905E-06   -0.49938E-06  2448   0.272E-03
   7 F= -.11644232E+04 E0= -.11644191E+04  d E =-.158225E-02  mag=    -1.9610
       N       E                     dE             d eps       ncg     rms          rms(c)
DAV:   1    -0.116442282876E+04    0.35631E-03   -0.10425E+00  6336   0.115E+00    0.184E-01
RMM:   2    -0.116442513497E+04   -0.23062E-02   -0.24944E-02  6152   0.187E-01    0.116E-01
RMM:   3    -0.116442508291E+04    0.52063E-04   -0.10202E-03  5638   0.451E-02    0.769E-02
RMM:   4    -0.116442502993E+04    0.52974E-04   -0.31905E-04  4425   0.170E-02    0.272E-02
RMM:   5    -0.116442502719E+04    0.27459E-05   -0.49168E-05  3505   0.747E-03    0.108E-02
RMM:   6    -0.116442502921E+04   -0.20220E-05   -0.19981E-05  3406   0.468E-03    0.686E-03
RMM:   7    -0.116442503019E+04   -0.98191E-06   -0.11876E-05  3122   0.358E-03    0.426E-03
RMM:   8    -0.116442503082E+04   -0.63003E-06   -0.66717E-06  2930   0.300E-03
   8 F= -.11644250E+04 E0= -.11644210E+04  d E =-.184523E-02  mag=    -1.9609
       N       E                     dE             d eps       ncg     rms          rms(c)
DAV:   1    -0.116442477866E+04    0.25153E-03   -0.80538E-01  6336   0.101E+00    0.162E-01
RMM:   2    -0.116442654968E+04   -0.17710E-02   -0.19173E-02  6144   0.163E-01    0.104E-01
RMM:   3    -0.116442650782E+04    0.41858E-04   -0.78166E-04  5321   0.396E-02    0.685E-02
RMM:   4    -0.116442646926E+04    0.38561E-04   -0.22150E-04  3989   0.147E-02    0.337E-02
RMM:   5    -0.116442646359E+04    0.56659E-05   -0.52302E-05  3499   0.767E-03    0.105E-02
RMM:   6    -0.116442646563E+04   -0.20413E-05   -0.19150E-05  3375   0.462E-03    0.679E-03
RMM:   7    -0.116442646656E+04   -0.92536E-06   -0.10753E-05  3033   0.346E-03    0.458E-03
RMM:   8    -0.116442646712E+04   -0.56274E-06   -0.63059E-06  2778   0.291E-03
   9 F= -.11644265E+04 E0= -.11644224E+04  d E =-.143630E-02  mag=    -1.9610
