       N       E                     dE             d eps       ncg     rms          rms(c)
DAV:   1    -0.116520377295E+04   -0.11652E+04   -0.33593E-06  3776   0.331E-03    0.578E-03
RMM:   2    -0.116520377281E+04    0.14165E-06   -0.13483E-06  1756   0.209E-03    0.476E-03
RMM:   3    -0.116520377258E+04    0.23040E-06   -0.33981E-08  1099   0.167E-03    0.567E-04
RMM:   4    -0.116520377259E+04   -0.36962E-08   -0.72964E-09   410   0.167E-03    0.366E-04
RMM:   5    -0.116520377259E+04   -0.35216E-08    0.00000E+00   298   0.166E-03    0.222E-04
RMM:   6    -0.116520377259E+04   -0.59372E-08   -0.40153E-09   253   0.167E-03    0.669E-05
RMM:   7    -0.116520377260E+04   -0.74215E-09    0.00000E+00   227   0.167E-03    0.315E-05
RMM:   8    -0.116520377260E+04   -0.52387E-09    0.00000E+00   213   0.167E-03
   1 F= -.11652038E+04 E0= -.11651977E+04  d E =-.116520E+04  mag=     3.9809
       N       E                     dE             d eps       ncg     rms          rms(c)
DAV:   1    -0.116520386219E+04   -0.89591E-04   -0.71515E-02  6112   0.302E-01    0.946E-02
RMM:   2    -0.116520394055E+04   -0.78364E-04   -0.24378E-03  6040   0.607E-02    0.952E-02
RMM:   3    -0.116520389655E+04    0.44000E-04   -0.78565E-05  3697   0.129E-02    0.645E-02
RMM:   4    -0.116520386223E+04    0.34324E-04   -0.11020E-04  3596   0.113E-02    0.289E-02
RMM:   5    -0.116520385190E+04    0.10327E-04   -0.19614E-05  3216   0.503E-03    0.118E-02
RMM:   6    -0.116520385134E+04    0.56392E-06   -0.49213E-06  2525   0.255E-03    0.741E-03
RMM:   7    -0.116520385136E+04   -0.20344E-07   -0.11116E-06  1787   0.195E-03    0.463E-03
RMM:   8    -0.116520385134E+04    0.14174E-07   -0.58577E-08  1341   0.179E-03
   2 F= -.11652039E+04 E0= -.11651978E+04  d E =-.787464E-04  mag=     3.9809
       N       E                     dE             d eps       ncg     rms          rms(c)
DAV:   1    -0.116520406332E+04   -0.21197E-03   -0.16360E-02  6080   0.144E-01    0.479E-02
RMM:   2    -0.116520406631E+04   -0.29839E-05   -0.62920E-04  5597   0.304E-02    0.500E-02
RMM:   3    -0.116520405211E+04    0.14197E-04   -0.22745E-05  3118   0.662E-03    0.341E-02
RMM:   4    -0.116520404070E+04    0.11408E-04   -0.36387E-05  3012   0.643E-03    0.146E-02
RMM:   5    -0.116520403747E+04    0.32374E-05   -0.56455E-06  2436   0.286E-03    0.734E-03
RMM:   6    -0.116520403713E+04    0.33765E-06   -0.18304E-07  1128   0.175E-03    0.444E-03
RMM:   7    -0.116520403713E+04    0.16007E-08   -0.53230E-07   850   0.188E-03    0.229E-03
RMM:   8    -0.116520403715E+04   -0.24462E-07   -0.34185E-07   642   0.189E-03
   3 F= -.11652040E+04 E0= -.11651979E+04  d E =-.185809E-03  mag=     3.9809
