       N       E                     dE             d eps       ncg     rms          rms(c)
DAV:   1    -0.116596580791E+04   -0.11660E+04   -0.75311E+00 17224   0.504E+00    0.776E+00
RMM:   2    -0.116468943992E+04    0.12764E+01   -0.33850E+00 12288   0.144E+00    0.105E+01
RMM:   3    -0.116384421645E+04    0.84522E+00   -0.71018E-01 12180   0.630E-01    0.380E+00
RMM:   4    -0.116377097437E+04    0.73242E-01   -0.98030E-02 12225   0.251E-01    0.173E+00
RMM:   5    -0.116383044654E+04   -0.59472E-01   -0.53129E-02 12283   0.187E-01    0.176E+00
RMM:   6    -0.116384069784E+04   -0.10251E-01   -0.33119E-02 12244   0.150E-01    0.111E+00
RMM:   7    -0.116386911479E+04   -0.28417E-01   -0.37590E-02 12178   0.169E-01    0.781E-01
RMM:   8    -0.116387605856E+04   -0.69438E-02   -0.14919E-02 12844   0.113E-01    0.483E-01
RMM:   9    -0.116387714415E+04   -0.10856E-02   -0.35545E-03 12376   0.480E-02    0.364E-01
RMM:  10    -0.116387881273E+04   -0.16686E-02   -0.14808E-03 11068   0.319E-02    0.347E-01
RMM:  11    -0.116388203516E+04   -0.32224E-02   -0.20317E-03 11064   0.375E-02    0.329E-01
RMM:  12    -0.116388446067E+04   -0.24255E-02   -0.11963E-03 10566   0.304E-02    0.343E-01
RMM:  13    -0.116388730159E+04   -0.28409E-02   -0.12273E-03 10542   0.293E-02    0.385E-01
RMM:  14    -0.116388215959E+04    0.51420E-02   -0.30755E-03 11686   0.479E-02    0.405E-01
RMM:  15    -0.116388954036E+04   -0.73808E-02   -0.71258E-03 12033   0.702E-02    0.373E-01
RMM:  16    -0.116390569455E+04   -0.16154E-01   -0.36573E-02 12164   0.161E-01    0.518E-01
RMM:  17    -0.116390489987E+04    0.79468E-03   -0.18526E-03 11792   0.338E-02    0.534E-01
RMM:  18    -0.116390068411E+04    0.42158E-02   -0.13538E-03 10556   0.330E-02    0.459E-01
RMM:  19    -0.116390531387E+04   -0.46298E-02   -0.27472E-03 11368   0.435E-02    0.497E-01
RMM:  20    -0.116390707109E+04   -0.17572E-02   -0.30707E-03 12303   0.429E-02    0.447E-01
RMM:  21    -0.116391553976E+04   -0.84687E-02   -0.11645E-02 12098   0.891E-02    0.488E-01
RMM:  22    -0.116391877572E+04   -0.32360E-02   -0.39498E-03 12158   0.510E-02    0.501E-01
RMM:  23    -0.116391896609E+04   -0.19037E-03   -0.46304E-04 10074   0.147E-02    0.512E-01
RMM:  24    -0.116391900852E+04   -0.42426E-04   -0.70604E-05  7930   0.765E-03
   1 F= -.11639190E+04 E0= -.11639146E+04  d E =-.116392E+04  mag=    -0.0943
       N       E                     dE             d eps       ncg     rms          rms(c)
DAV:   1    -0.116401576282E+04   -0.96797E-01   -0.90560E+01 12568   0.102E+01    0.298E+00
RMM:   2    -0.116439734184E+04   -0.38158E+00   -0.27888E+00 12288   0.200E+00    0.329E+00
RMM:   3    -0.116437926316E+04    0.18079E-01   -0.12350E-01 12818   0.411E-01    0.234E+00
RMM:   4    -0.116438668407E+04   -0.74209E-02   -0.76615E-02 12187   0.260E-01    0.129E+00
RMM:   5    -0.116439475066E+04   -0.80666E-02   -0.38038E-02 12151   0.191E-01    0.442E-01
RMM:   6    -0.116439608410E+04   -0.13334E-02   -0.51523E-03 12405   0.667E-02    0.317E-01
RMM:   7    -0.116439655513E+04   -0.47102E-03   -0.12667E-03 11494   0.320E-02    0.185E-01
RMM:   8    -0.116439729394E+04   -0.73882E-03   -0.83984E-04 10666   0.300E-02    0.740E-02
RMM:   9    -0.116439737311E+04   -0.79169E-04   -0.16272E-04  8368   0.138E-02
   2 F= -.11643974E+04 E0= -.11643915E+04  d E =-.478365E+00  mag=    -0.0897
       N       E                     dE             d eps       ncg     rms          rms(c)
DAV:   1    -0.116446530762E+04   -0.68014E-01   -0.31624E+01 12640   0.598E+00    0.165E+00
RMM:   2    -0.116453883080E+04   -0.73523E-01   -0.90132E-01 12288   0.113E+00    0.184E+00
RMM:   3    -0.116453247850E+04    0.63523E-02   -0.40473E-02 13205   0.235E-01    0.131E+00
RMM:   4    -0.116452899515E+04    0.34833E-02   -0.17199E-02 12639   0.124E-01    0.714E-01
RMM:   5    -0.116452656440E+04    0.24308E-02   -0.74122E-03 12247   0.797E-02    0.206E-01
RMM:   6    -0.116452633245E+04    0.23195E-03   -0.92328E-04 11062   0.280E-02    0.126E-01
RMM:   7    -0.116452625391E+04    0.78542E-04   -0.22510E-04  8931   0.137E-02    0.731E-02
RMM:   8    -0.116452625562E+04   -0.17072E-05   -0.13743E-04  8205   0.120E-02
   3 F= -.11645263E+04 E0= -.11645204E+04  d E =-.128883E+00  mag=    -0.0890
       N       E                     dE             d eps       ncg     rms          rms(c)
DAV:   1    -0.116455190815E+04   -0.25654E-01   -0.12904E+01 12664   0.392E+00    0.101E+00
RMM:   2    -0.116457857456E+04   -0.26666E-01   -0.33807E-01 12289   0.694E-01    0.892E-01
RMM:   3    -0.116457733874E+04    0.12358E-02   -0.15983E-02 12958   0.155E-01    0.578E-01
RMM:   4    -0.116457560204E+04    0.17367E-02   -0.63109E-03 13402   0.751E-02    0.307E-01
RMM:   5    -0.116457503362E+04    0.56842E-03   -0.19605E-03 12596   0.402E-02    0.823E-02
RMM:   6    -0.116457501759E+04    0.16021E-04   -0.19103E-04  8578   0.143E-02    0.561E-02
RMM:   7    -0.116457501297E+04    0.46272E-05   -0.87764E-05  8007   0.103E-02    0.341E-02
RMM:   8    -0.116457501882E+04   -0.58487E-05   -0.62222E-05  7452   0.824E-03
   4 F= -.11645750E+04 E0= -.11645694E+04  d E =-.487632E-01  mag=    -0.0867
       N       E                     dE             d eps       ncg     rms          rms(c)
DAV:   1    -0.116456713024E+04    0.78827E-02   -0.17259E+01 12768   0.455E+00    0.105E+00
RMM:   2    -0.116460452799E+04   -0.37398E-01   -0.42912E-01 12294   0.764E-01    0.752E-01
RMM:   3    -0.116460392639E+04    0.60160E-03   -0.19608E-02 12957   0.179E-01    0.471E-01
RMM:   4    -0.116460258235E+04    0.13440E-02   -0.60830E-03 13484   0.734E-02    0.240E-01
RMM:   5    -0.116460246803E+04    0.11432E-03   -0.15792E-03 13267   0.358E-02    0.655E-02
RMM:   6    -0.116460247507E+04   -0.70340E-05   -0.23916E-04  9023   0.141E-02    0.485E-02
RMM:   7    -0.116460248301E+04   -0.79439E-05   -0.10942E-04  7831   0.103E-02    0.249E-02
RMM:   8    -0.116460249330E+04   -0.10287E-04   -0.67300E-05  7439   0.811E-03
   5 F= -.11646025E+04 E0= -.11645969E+04  d E =-.274745E-01  mag=    -0.0947
       N       E                     dE             d eps       ncg     rms          rms(c)
DAV:   1    -0.116457101798E+04    0.31465E-01   -0.22929E+01 12696   0.516E+00    0.115E+00
RMM:   2    -0.116462191189E+04   -0.50894E-01   -0.56974E-01 12296   0.858E-01    0.857E-01
RMM:   3    -0.116462122608E+04    0.68581E-03   -0.27143E-02 13020   0.204E-01    0.560E-01
RMM:   4    -0.116461992326E+04    0.13028E-02   -0.70757E-03 13746   0.785E-02    0.329E-01
RMM:   5    -0.116461946011E+04    0.46315E-03   -0.27197E-03 13272   0.445E-02    0.996E-02
RMM:   6    -0.116461945361E+04    0.64989E-05   -0.39702E-04 10111   0.184E-02    0.529E-02
RMM:   7    -0.116461946203E+04   -0.84170E-05   -0.15321E-04  8120   0.114E-02    0.290E-02
RMM:   8    -0.116461948037E+04   -0.18345E-04   -0.87034E-05  7579   0.891E-03
   6 F= -.11646195E+04 E0= -.11646142E+04  d E =-.169871E-01  mag=    -0.0982
       N       E                     dE             d eps       ncg     rms          rms(c)
DAV:   1    -0.116453791831E+04    0.81544E-01   -0.38180E+01 12608   0.675E+00    0.143E+00
RMM:   2    -0.116462287390E+04   -0.84956E-01   -0.94321E-01 12300   0.110E+00    0.948E-01
RMM:   3    -0.116462161166E+04    0.12622E-02   -0.42663E-02 12920   0.267E-01    0.603E-01
RMM:   4    -0.116461936728E+04    0.22444E-02   -0.11734E-02 14185   0.100E-01    0.284E-01
RMM:   5    -0.116461953741E+04   -0.17013E-03   -0.28208E-03 14583   0.452E-02    0.876E-02
RMM:   6    -0.116461955515E+04   -0.17742E-04   -0.57724E-04 12174   0.194E-02    0.548E-02
RMM:   7    -0.116461958782E+04   -0.32672E-04   -0.28300E-04  9260   0.132E-02    0.299E-02
RMM:   8    -0.116461961034E+04   -0.22514E-04   -0.14855E-04  7950   0.999E-03
   7 F= -.11646196E+04 E0= -.11646144E+04  d E =-.129965E-03  mag=    -0.1009
       N       E                     dE             d eps       ncg     rms          rms(c)
DAV:   1    -0.116456579128E+04    0.53797E-01   -0.22408E+01 12616   0.521E+00    0.102E+00
RMM:   2    -0.116461495957E+04   -0.49168E-01   -0.54826E-01 12300   0.845E-01    0.685E-01
RMM:   3    -0.116461412157E+04    0.83800E-03   -0.24583E-02 12972   0.205E-01    0.444E-01
RMM:   4    -0.116461297704E+04    0.11445E-02   -0.69835E-03 14062   0.768E-02    0.206E-01
RMM:   5    -0.116461301853E+04   -0.41496E-04   -0.16076E-03 14091   0.343E-02    0.603E-02
RMM:   6    -0.116461303564E+04   -0.17106E-04   -0.32669E-04  9877   0.148E-02    0.409E-02
RMM:   7    -0.116461305664E+04   -0.20998E-04   -0.16225E-04  8124   0.107E-02    0.221E-02
RMM:   8    -0.116461307052E+04   -0.13886E-04   -0.85457E-05  7562   0.861E-03
   8 F= -.11646131E+04 E0= -.11646078E+04  d E =0.653982E-02  mag=    -0.1048
       N       E                     dE             d eps       ncg     rms          rms(c)
DAV:   1    -0.116456561408E+04    0.47443E-01   -0.18970E+01 12752   0.480E+00    0.884E-01
RMM:   2    -0.116460741913E+04   -0.41805E-01   -0.46292E-01 12300   0.780E-01    0.603E-01
RMM:   3    -0.116460674794E+04    0.67119E-03   -0.20953E-02 12984   0.188E-01    0.404E-01
RMM:   4    -0.116460596122E+04    0.78672E-03   -0.55435E-03 14265   0.684E-02    0.229E-01
RMM:   5    -0.116460573713E+04    0.22408E-03   -0.17254E-03 13607   0.342E-02    0.620E-02
RMM:   6    -0.116460574289E+04   -0.57574E-05   -0.25569E-04  9165   0.144E-02    0.391E-02
RMM:   7    -0.116460575596E+04   -0.13074E-04   -0.12148E-04  7842   0.102E-02    0.209E-02
RMM:   8    -0.116460576674E+04   -0.10781E-04   -0.70629E-05  7448   0.817E-03
   9 F= -.11646058E+04 E0= -.11646005E+04  d E =0.730378E-02  mag=    -0.1063
       N       E                     dE             d eps       ncg     rms          rms(c)
DAV:   1    -0.116457140197E+04    0.34354E-01   -0.13294E+01 12848   0.404E+00    0.704E-01
RMM:   2    -0.116460044996E+04   -0.29048E-01   -0.32055E-01 12298   0.652E-01    0.469E-01
RMM:   3    -0.116459993077E+04    0.51919E-03   -0.14240E-02 12866   0.158E-01    0.317E-01
RMM:   4    -0.116459933476E+04    0.59601E-03   -0.39759E-03 14056   0.574E-02    0.163E-01
RMM:   5    -0.116459923364E+04    0.10112E-03   -0.10482E-03 12721   0.266E-02    0.456E-02
RMM:   6    -0.116459923535E+04   -0.17010E-05   -0.15225E-04  8216   0.116E-02    0.300E-02
RMM:   7    -0.116459924385E+04   -0.85031E-05   -0.76056E-05  7568   0.867E-03    0.163E-02
RMM:   8    -0.116459925144E+04   -0.75881E-05   -0.48384E-05  7277   0.725E-03
  10 F= -.11645993E+04 E0= -.11645940E+04  d E =0.651531E-02  mag=    -0.1065
       N       E                     dE             d eps       ncg     rms          rms(c)
DAV:   1    -0.116457262621E+04    0.26618E-01   -0.98015E+00 12768   0.346E+00    0.591E-01
RMM:   2    -0.116459408487E+04   -0.21459E-01   -0.23407E-01 12298   0.556E-01    0.390E-01
RMM:   3    -0.116459371532E+04    0.36956E-03   -0.10268E-02 12724   0.135E-01    0.265E-01
RMM:   4    -0.116459322025E+04    0.49506E-03   -0.29718E-03 13630   0.498E-02    0.120E-01
RMM:   5    -0.116459323836E+04   -0.18108E-04   -0.62296E-04 11494   0.216E-02    0.371E-02
RMM:   6    -0.116459324122E+04   -0.28564E-05   -0.97746E-05  7757   0.101E-02    0.247E-02
RMM:   7    -0.116459324912E+04   -0.79032E-05   -0.60417E-05  7402   0.789E-03    0.140E-02
RMM:   8    -0.116459325435E+04   -0.52314E-05   -0.36061E-05  7094   0.645E-03
  11 F= -.11645933E+04 E0= -.11645880E+04  d E =0.599708E-02  mag=    -0.1069
       N       E                     dE             d eps       ncg     rms          rms(c)
DAV:   1    -0.116458138066E+04    0.11868E-01   -0.41744E+00 13128   0.227E+00    0.369E-01
RMM:   2    -0.116459048080E+04   -0.91001E-02   -0.99135E-02 12298   0.365E-01    0.243E-01
RMM:   3    -0.116459029353E+04    0.18727E-03   -0.42858E-03 12512   0.887E-02    0.165E-01
RMM:   4    -0.116459009184E+04    0.20169E-03   -0.12492E-03 12156   0.325E-02    0.797E-02
RMM:   5    -0.116459007105E+04    0.20790E-04   -0.26181E-04  9338   0.152E-02    0.244E-02
RMM:   6    -0.116459007370E+04   -0.26465E-05   -0.40407E-05  7232   0.807E-03    0.148E-02
RMM:   7    -0.116459007848E+04   -0.47766E-05   -0.41545E-05  6985   0.639E-03    0.848E-03
RMM:   8    -0.116459008139E+04   -0.29096E-05   -0.22832E-05  6605   0.491E-03
  12 F= -.11645901E+04 E0= -.11645848E+04  d E =0.317297E-02  mag=    -0.1075
       N       E                     dE             d eps       ncg     rms          rms(c)
DAV:   1    -0.116458563197E+04    0.44465E-02   -0.16356E+00 12784   0.144E+00    0.228E-01
RMM:   2    -0.116458920545E+04   -0.35735E-02   -0.38851E-02 12306   0.233E-01    0.147E-01
RMM:   3    -0.116458914059E+04    0.64865E-04   -0.16561E-03 12105   0.566E-02    0.101E-01
RMM:   4    -0.116458905928E+04    0.81312E-04   -0.50192E-04 10314   0.212E-02    0.429E-02
RMM:   5    -0.116458905313E+04    0.61509E-05   -0.82267E-05  7339   0.983E-03    0.146E-02
RMM:   6    -0.116458905637E+04   -0.32400E-05   -0.28915E-05  6964   0.589E-03    0.927E-03
RMM:   7    -0.116458905804E+04   -0.16774E-05   -0.16365E-05  6497   0.456E-03    0.588E-03
RMM:   8    -0.116458905945E+04   -0.14068E-05   -0.11306E-05  6177   0.360E-03
  13 F= -.11645891E+04 E0= -.11645838E+04  d E =0.102194E-02  mag=    -0.1074
       N       E                     dE             d eps       ncg     rms          rms(c)
DAV:   1    -0.116458525974E+04    0.37983E-02   -0.13800E+00 12792   0.132E+00    0.208E-01
RMM:   2    -0.116458826955E+04   -0.30098E-02   -0.32678E-02 12304   0.214E-01    0.133E-01
RMM:   3    -0.116458821155E+04    0.58003E-04   -0.13693E-03 11789   0.520E-02    0.899E-02
RMM:   4    -0.116458814027E+04    0.71281E-04   -0.42001E-04  9497   0.194E-02    0.357E-02
RMM:   5    -0.116458813798E+04    0.22926E-05   -0.64437E-05  7190   0.887E-03    0.124E-02
RMM:   6    -0.116458814069E+04   -0.27101E-05   -0.23702E-05  6892   0.542E-03    0.813E-03
RMM:   7    -0.116458814205E+04   -0.13651E-05   -0.13776E-05  6361   0.419E-03    0.494E-03
RMM:   8    -0.116458814309E+04   -0.10397E-05   -0.85222E-06  6123   0.337E-03
  14 F= -.11645881E+04 E0= -.11645829E+04  d E =0.916358E-03  mag=    -0.1071
       N       E                     dE             d eps       ncg     rms          rms(c)
DAV:   1    -0.116458477633E+04    0.33657E-02   -0.13501E+00 12640   0.132E+00    0.207E-01
RMM:   2    -0.116458773495E+04   -0.29586E-02   -0.32128E-02 12304   0.213E-01    0.130E-01
RMM:   3    -0.116458767878E+04    0.56171E-04   -0.13456E-03 11795   0.521E-02    0.882E-02
RMM:   4    -0.116458761332E+04    0.65452E-04   -0.40709E-04  9460   0.193E-02    0.357E-02
RMM:   5    -0.116458760919E+04    0.41285E-05   -0.65272E-05  7188   0.889E-03    0.130E-02
RMM:   6    -0.116458761188E+04   -0.26899E-05   -0.24424E-05  6919   0.549E-03    0.814E-03
RMM:   7    -0.116458761332E+04   -0.14372E-05   -0.14415E-05  6408   0.424E-03    0.507E-03
RMM:   8    -0.116458761433E+04   -0.10052E-05   -0.86143E-06  6133   0.338E-03
  15 F= -.11645876E+04 E0= -.11645824E+04  d E =0.528764E-03  mag=    -0.1073
       N       E                     dE             d eps       ncg     rms          rms(c)
DAV:   1    -0.116458638318E+04    0.12301E-02   -0.60553E-01 12992   0.893E-01    0.142E-01
RMM:   2    -0.116458771941E+04   -0.13362E-02   -0.14587E-02 12301   0.145E-01    0.882E-02
RMM:   3    -0.116458768932E+04    0.30090E-04   -0.58689E-04  9768   0.353E-02    0.594E-02
RMM:   4    -0.116458766063E+04    0.28694E-04   -0.18123E-04  7492   0.138E-02    0.227E-02
RMM:   5    -0.116458766055E+04    0.73691E-07   -0.38774E-05  7008   0.669E-03    0.858E-03
RMM:   6    -0.116458766218E+04   -0.16262E-05   -0.16530E-05  6732   0.429E-03    0.583E-03
RMM:   7    -0.116458766300E+04   -0.82402E-06   -0.88549E-06  6146   0.327E-03    0.338E-03
RMM:   8    -0.116458766360E+04   -0.59546E-06   -0.53424E-06  5600   0.280E-03
  16 F= -.11645877E+04 E0= -.11645824E+04  d E =-.492703E-04  mag=    -0.1070
