       N       E                     dE             d eps       ncg     rms          rms(c)
DAV:   1    -0.116514994159E+04   -0.11651E+04   -0.54217E-06  7736   0.465E-03    0.883E-03
RMM:   2    -0.116514994150E+04    0.93336E-07   -0.43164E-06  4884   0.267E-03    0.102E-02
RMM:   3    -0.116514994054E+04    0.96104E-06   -0.68254E-07  2825   0.193E-03    0.171E-03
RMM:   4    -0.116514994054E+04    0.29104E-09   -0.86387E-09  1081   0.179E-03    0.162E-03
RMM:   5    -0.116514994055E+04   -0.13548E-07   -0.16383E-07   986   0.184E-03    0.358E-04
RMM:   6    -0.116514994056E+04   -0.23574E-08   -0.26352E-08   674   0.180E-03    0.146E-04
RMM:   7    -0.116514994056E+04   -0.75670E-09   -0.70637E-09   546   0.179E-03    0.976E-05
RMM:   8    -0.116514994056E+04   -0.37835E-09   -0.81635E-09   502   0.179E-03
   1 F= -.11651499E+04 E0= -.11651446E+04  d E =-.116515E+04  mag=     2.1767
       N       E                     dE             d eps       ncg     rms          rms(c)
DAV:   1    -0.116514998701E+04   -0.46455E-04   -0.75354E-02 12288   0.316E-01    0.875E-02
RMM:   2    -0.116515007472E+04   -0.87706E-04   -0.25021E-03 12180   0.614E-02    0.812E-02
RMM:   3    -0.116515003111E+04    0.43603E-04   -0.83054E-05  7235   0.136E-02    0.537E-02
RMM:   4    -0.116514999973E+04    0.31380E-04   -0.10491E-04  7144   0.110E-02    0.244E-02
RMM:   5    -0.116514999253E+04    0.72041E-05   -0.18778E-05  6482   0.494E-03    0.117E-02
RMM:   6    -0.116514999230E+04    0.23158E-06   -0.52266E-06  5105   0.270E-03    0.851E-03
RMM:   7    -0.116514999226E+04    0.40396E-07   -0.14547E-06  3688   0.209E-03    0.505E-03
RMM:   8    -0.116514999227E+04   -0.11569E-07   -0.17520E-07  2842   0.187E-03
   2 F= -.11651500E+04 E0= -.11651446E+04  d E =-.517132E-04  mag=     2.1758
       N       E                     dE             d eps       ncg     rms          rms(c)
DAV:   1    -0.116515029871E+04   -0.30645E-03   -0.16049E-02 12208   0.143E-01    0.447E-02
RMM:   2    -0.116515029830E+04    0.40744E-06   -0.59125E-04 11219   0.293E-02    0.424E-02
RMM:   3    -0.116515028379E+04    0.14515E-04   -0.22573E-05  6292   0.659E-03    0.280E-02
RMM:   4    -0.116515027238E+04    0.11403E-04   -0.36235E-05  6330   0.630E-03    0.116E-02
RMM:   5    -0.116515027021E+04    0.21778E-05   -0.49566E-06  4708   0.272E-03    0.741E-03
RMM:   6    -0.116515026998E+04    0.22286E-06   -0.19634E-07  2308   0.179E-03    0.469E-03
RMM:   7    -0.116515027000E+04   -0.20766E-07   -0.48615E-07  1834   0.188E-03    0.195E-03
RMM:   8    -0.116515026999E+04    0.12020E-07   -0.11104E-07  1148   0.186E-03
   3 F= -.11651503E+04 E0= -.11651449E+04  d E =-.277722E-03  mag=     2.1752
