       N       E                     dE             d eps       ncg     rms          rms(c)
DAV:   1    -0.116454635092E+04   -0.11645E+04   -0.59681E-06  7264   0.432E-03    0.467E-03
RMM:   2    -0.116454635103E+04   -0.10873E-06   -0.36713E-06  4642   0.260E-03    0.352E-03
RMM:   3    -0.116454635105E+04   -0.24214E-07   -0.12503E-06  2998   0.207E-03    0.873E-04
RMM:   4    -0.116454635109E+04   -0.37384E-07   -0.46292E-07  1550   0.194E-03    0.603E-04
RMM:   5    -0.116454635110E+04   -0.10841E-07   -0.14686E-07   989   0.190E-03    0.365E-04
RMM:   6    -0.116454635110E+04   -0.16007E-08   -0.25826E-08   808   0.189E-03    0.210E-04
RMM:   7    -0.116454635110E+04   -0.40163E-08   -0.18553E-08   779   0.189E-03    0.110E-04
RMM:   8    -0.116454635111E+04   -0.49477E-09   -0.36470E-09   741   0.189E-03
   1 F= -.11645464E+04 E0= -.11645459E+04  d E =-.116455E+04  mag=     3.9915
       N       E                     dE             d eps       ncg     rms          rms(c)
DAV:   1    -0.116454668783E+04   -0.33673E-03   -0.22061E-01 12352   0.531E-01    0.113E-01
RMM:   2    -0.116454713700E+04   -0.44916E-03   -0.57491E-03 12184   0.917E-02    0.906E-02
RMM:   3    -0.116454709506E+04    0.41940E-04   -0.21569E-04  8426   0.216E-02    0.594E-02
RMM:   4    -0.116454706778E+04    0.27272E-04   -0.95811E-05  7121   0.108E-02    0.299E-02
RMM:   5    -0.116454706324E+04    0.45392E-05   -0.29926E-05  6706   0.603E-03    0.121E-02
RMM:   6    -0.116454706405E+04   -0.80222E-06   -0.10175E-05  6002   0.364E-03    0.742E-03
RMM:   7    -0.116454706436E+04   -0.31237E-06   -0.37978E-06  4083   0.253E-03    0.501E-03
RMM:   8    -0.116454706462E+04   -0.25684E-06   -0.23909E-06  3981   0.232E-03
   2 F= -.11645471E+04 E0= -.11645466E+04  d E =-.713511E-03  mag=     3.9915
       N       E                     dE             d eps       ncg     rms          rms(c)
DAV:   1    -0.116454731519E+04   -0.25083E-03   -0.92910E-02 12288   0.347E-01    0.835E-02
RMM:   2    -0.116454749205E+04   -0.17686E-03   -0.26273E-03 12088   0.620E-02    0.719E-02
RMM:   3    -0.116454746727E+04    0.24781E-04   -0.89544E-05  7070   0.144E-02    0.490E-02
RMM:   4    -0.116454745230E+04    0.14969E-04   -0.67702E-05  6884   0.896E-03    0.207E-02
RMM:   5    -0.116454744859E+04    0.37124E-05   -0.14740E-05  5970   0.433E-03    0.845E-03
RMM:   6    -0.116454744881E+04   -0.22062E-06   -0.39863E-06  4287   0.254E-03    0.555E-03
RMM:   7    -0.116454744894E+04   -0.12777E-06   -0.17545E-06  3498   0.220E-03    0.322E-03
RMM:   8    -0.116454744897E+04   -0.36118E-07   -0.54319E-07  2510   0.202E-03
   3 F= -.11645474E+04 E0= -.11645470E+04  d E =-.384359E-03  mag=     3.9915
       N       E                     dE             d eps       ncg     rms          rms(c)
DAV:   1    -0.116454757402E+04   -0.12508E-03   -0.19319E-01 12384   0.500E-01    0.914E-02
RMM:   2    -0.116454798866E+04   -0.41465E-03   -0.47722E-03 12178   0.829E-02    0.663E-02
RMM:   3    -0.116454796911E+04    0.19559E-04   -0.16934E-04  7576   0.199E-02    0.442E-02
RMM:   4    -0.116454795726E+04    0.11843E-04   -0.67729E-05  6923   0.904E-03    0.208E-02
RMM:   5    -0.116454795568E+04    0.15869E-05   -0.19712E-05  6393   0.490E-03    0.797E-03
RMM:   6    -0.116454795637E+04   -0.69375E-06   -0.71973E-06  5460   0.316E-03    0.505E-03
RMM:   7    -0.116454795669E+04   -0.32471E-06   -0.31215E-06  4007   0.244E-03    0.326E-03
RMM:   8    -0.116454795690E+04   -0.20194E-06   -0.17584E-06  3228   0.220E-03
   4 F= -.11645480E+04 E0= -.11645475E+04  d E =-.507921E-03  mag=     3.9915
       N       E                     dE             d eps       ncg     rms          rms(c)
DAV:   1    -0.116454786383E+04    0.92866E-04   -0.29821E-01 12496   0.623E-01    0.104E-01
RMM:   2    -0.116454851609E+04   -0.65226E-03   -0.72429E-03 12220   0.102E-01    0.697E-02
RMM:   3    -0.116454849388E+04    0.22205E-04   -0.26409E-04  8094   0.247E-02    0.460E-02
RMM:   4    -0.116454847881E+04    0.15074E-04   -0.87710E-05  7075   0.102E-02    0.242E-02
RMM:   5    -0.116454847653E+04    0.22735E-05   -0.27689E-05  6744   0.584E-03    0.842E-03
RMM:   6    -0.116454847769E+04   -0.11547E-05   -0.10846E-05  6343   0.365E-03    0.541E-03
RMM:   7    -0.116454847813E+04   -0.44718E-06   -0.50668E-06  4701   0.278E-03    0.366E-03
RMM:   8    -0.116454847839E+04   -0.25498E-06   -0.26402E-06  3561   0.233E-03
   5 F= -.11645485E+04 E0= -.11645480E+04  d E =-.521494E-03  mag=     3.9915
       N       E                     dE             d eps       ncg     rms          rms(c)
DAV:   1    -0.116454828998E+04    0.18816E-03   -0.32880E-01 12576   0.654E-01    0.106E-01
RMM:   2    -0.116454901651E+04   -0.72654E-03   -0.79081E-03 12217   0.106E-01    0.683E-02
RMM:   3    -0.116454899601E+04    0.20505E-04   -0.29117E-04  8113   0.258E-02    0.451E-02
RMM:   4    -0.116454898106E+04    0.14946E-04   -0.96846E-05  7048   0.105E-02    0.193E-02
RMM:   5    -0.116454898055E+04    0.50849E-06   -0.25973E-05  6745   0.558E-03    0.657E-03
RMM:   6    -0.116454898175E+04   -0.11948E-05   -0.11130E-05  6285   0.361E-03    0.450E-03
RMM:   7    -0.116454898225E+04   -0.50165E-06   -0.53329E-06  4720   0.282E-03    0.264E-03
RMM:   8    -0.116454898258E+04   -0.32905E-06   -0.30396E-06  3609   0.239E-03
   6 F= -.11645490E+04 E0= -.11645485E+04  d E =-.504190E-03  mag=     3.9915
       N       E                     dE             d eps       ncg     rms          rms(c)
DAV:   1    -0.116454877156E+04    0.21069E-03   -0.27543E-01 12512   0.599E-01    0.960E-02
RMM:   2    -0.116454938697E+04   -0.61541E-03   -0.66135E-03 12211   0.970E-02    0.611E-02
RMM:   3    -0.116454937008E+04    0.16888E-04   -0.24041E-04  7956   0.237E-02    0.402E-02
RMM:   4    -0.116454935846E+04    0.11618E-04   -0.75669E-05  7011   0.944E-03    0.193E-02
RMM:   5    -0.116454935867E+04   -0.21014E-06   -0.23592E-05  6688   0.537E-03    0.708E-03
RMM:   6    -0.116454935982E+04   -0.11448E-05   -0.99732E-06  6069   0.350E-03    0.439E-03
RMM:   7    -0.116454936026E+04   -0.43956E-06   -0.47493E-06  4521   0.277E-03    0.283E-03
RMM:   8    -0.116454936053E+04   -0.26879E-06   -0.25160E-06  3284   0.232E-03
   7 F= -.11645494E+04 E0= -.11645489E+04  d E =-.377945E-03  mag=     3.9915
       N       E                     dE             d eps       ncg     rms          rms(c)
DAV:   1    -0.116454925002E+04    0.11024E-03   -0.17790E-01 12464   0.481E-01    0.780E-02
RMM:   2    -0.116454964713E+04   -0.39711E-03   -0.42884E-03 12150   0.781E-02    0.489E-02
RMM:   3    -0.116454963474E+04    0.12390E-04   -0.14707E-04  7369   0.192E-02    0.318E-02
RMM:   4    -0.116454962773E+04    0.70090E-05   -0.55897E-05  6897   0.818E-03    0.122E-02
RMM:   5    -0.116454962830E+04   -0.57450E-06   -0.14255E-05  6240   0.419E-03    0.486E-03
RMM:   6    -0.116454962893E+04   -0.62902E-06   -0.58579E-06  4915   0.293E-03    0.299E-03
RMM:   7    -0.116454962925E+04   -0.31765E-06   -0.29143E-06  3807   0.246E-03    0.195E-03
RMM:   8    -0.116454962941E+04   -0.16303E-06   -0.15541E-06  2678   0.221E-03
   8 F= -.11645496E+04 E0= -.11645492E+04  d E =-.268889E-03  mag=     3.9915
       N       E                     dE             d eps       ncg     rms          rms(c)
DAV:   1    -0.116454920907E+04    0.42018E-03   -0.35803E-01 12512   0.681E-01    0.109E-01
RMM:   2    -0.116455000440E+04   -0.79533E-03   -0.85552E-03 12228   0.110E-01    0.677E-02
RMM:   3    -0.116454998338E+04    0.21021E-04   -0.31832E-04  8226   0.270E-02    0.447E-02
RMM:   4    -0.116454996667E+04    0.16706E-04   -0.10259E-04  7080   0.109E-02    0.163E-02
RMM:   5    -0.116454996801E+04   -0.13442E-05   -0.25532E-05  6754   0.553E-03    0.704E-03
RMM:   6    -0.116454996925E+04   -0.12384E-05   -0.11462E-05  6381   0.364E-03    0.467E-03
RMM:   7    -0.116454996977E+04   -0.52196E-06   -0.55258E-06  4812   0.283E-03    0.290E-03
RMM:   8    -0.116454997008E+04   -0.30940E-06   -0.30298E-06  3763   0.240E-03
   9 F= -.11645500E+04 E0= -.11645495E+04  d E =-.340670E-03  mag=     3.9915
