       N       E                     dE             d eps       ncg     rms          rms(c)
DAV:   1     0.117862476089E+05    0.11786E+05   -0.41785E+05  6168   0.130E+03
DAV:   2     0.608929278344E+03   -0.11177E+05   -0.99888E+04  6144   0.372E+02
DAV:   3    -0.137352875241E+04   -0.19825E+04   -0.19128E+04  6616   0.163E+02
DAV:   4    -0.150422046203E+04   -0.13069E+03   -0.12851E+03  8192   0.429E+01
DAV:   5    -0.151194583667E+04   -0.77254E+01   -0.76983E+01 11040   0.910E+00    0.180E+02
RMM:   6    -0.116771797009E+04    0.34423E+03   -0.15708E+03  6243   0.337E+01    0.953E+01
RMM:   7    -0.115484941384E+04    0.12869E+02   -0.59949E+01  6371   0.970E+00    0.558E+01
RMM:   8    -0.116035441715E+04   -0.55050E+01   -0.28923E+01  6272   0.623E+00    0.159E+01
RMM:   9    -0.116128734896E+04   -0.93293E+00   -0.23812E+00  7377   0.148E+00    0.770E+00
RMM:  10    -0.116231736081E+04   -0.10300E+01   -0.19860E+00  6638   0.123E+00    0.563E+00
RMM:  11    -0.116321856755E+04   -0.90121E+00   -0.95922E-01  6783   0.843E-01    0.387E+00
RMM:  12    -0.116372886052E+04   -0.51029E+00   -0.47615E-01  6903   0.616E-01    0.241E+00
RMM:  13    -0.116386356185E+04   -0.13470E+00   -0.14682E-01  7192   0.317E-01    0.216E+00
RMM:  14    -0.116398053481E+04   -0.11697E+00   -0.16680E-01  6492   0.291E-01    0.251E+00
RMM:  15    -0.116397941630E+04    0.11185E-02   -0.14244E-02  8983   0.859E-02    0.253E+00
RMM:  16    -0.116398035381E+04   -0.93751E-03   -0.27322E-03  8399   0.366E-02    0.247E+00
RMM:  17    -0.116399022258E+04   -0.98688E-02   -0.45224E-03  7202   0.496E-02    0.260E+00
RMM:  18    -0.116396580551E+04    0.24417E-01   -0.42675E-01  6144   0.554E-01    0.604E+00
RMM:  19    -0.116402516259E+04   -0.59357E-01   -0.26234E-01  6195   0.467E-01    0.840E+00
RMM:  20    -0.116404938982E+04   -0.24227E-01   -0.83124E-02  6781   0.224E-01    0.936E+00
RMM:  21    -0.116407709574E+04   -0.27706E-01   -0.43984E-02  6168   0.169E-01    0.989E+00
RMM:  22    -0.116419811672E+04   -0.12102E+00   -0.15125E-01  6144   0.296E-01    0.823E+00
RMM:  23    -0.116427749118E+04   -0.79374E-01   -0.12663E-01  6184   0.295E-01    0.568E+00
RMM:  24    -0.116434207018E+04   -0.64579E-01   -0.16711E-01  6235   0.353E-01    0.329E+00
RMM:  25    -0.116433716218E+04    0.49080E-02   -0.18647E-02  6640   0.127E-01    0.337E+00
RMM:  26    -0.116432770579E+04    0.94564E-02   -0.46116E-03  7066   0.470E-02    0.333E+00
RMM:  27    -0.116430042649E+04    0.27279E-01   -0.26160E-02  6129   0.121E-01    0.201E+00
RMM:  28    -0.116431572798E+04   -0.15301E-01   -0.25450E-02  6139   0.132E-01    0.104E+00
RMM:  29    -0.116433469433E+04   -0.18966E-01   -0.20914E-02  6142   0.127E-01    0.341E-01
RMM:  30    -0.116433484224E+04   -0.14791E-03   -0.74980E-03  6074   0.666E-02    0.353E-01
RMM:  31    -0.116433567800E+04   -0.83576E-03   -0.14051E-03  5687   0.309E-02    0.215E-01
RMM:  32    -0.116433522337E+04    0.45464E-03   -0.14949E-03  5543   0.304E-02    0.152E-01
RMM:  33    -0.116433547925E+04   -0.25588E-03   -0.10590E-03  5345   0.265E-02    0.103E-01
RMM:  34    -0.116433554370E+04   -0.64456E-04   -0.10422E-04  3915   0.939E-03
   1 F= -.11643355E+04 E0= -.11643353E+04  d E =-.116434E+04  mag=     0.0061
       N       E                     dE             d eps       ncg     rms          rms(c)
DAV:   1    -0.116439274234E+04   -0.57263E-01   -0.55316E+01  7320   0.853E+00    0.199E+00
RMM:   2    -0.116454290585E+04   -0.15016E+00   -0.17955E+00  6144   0.160E+00    0.186E+00
RMM:   3    -0.116453632483E+04    0.65810E-02   -0.82003E-02  6590   0.365E-01    0.120E+00
RMM:   4    -0.116453446260E+04    0.18622E-02   -0.24017E-02  6639   0.143E-01    0.132E+00
RMM:   5    -0.116452172863E+04    0.12734E-01   -0.17403E-02  6390   0.119E-01    0.340E-01
RMM:   6    -0.116452065040E+04    0.10782E-02   -0.28605E-03  6509   0.483E-02    0.160E-01
RMM:   7    -0.116452049011E+04    0.16029E-03   -0.47037E-04  5471   0.187E-02    0.120E-01
RMM:   8    -0.116452038567E+04    0.10443E-03   -0.28524E-04  4673   0.158E-02    0.652E-02
RMM:   9    -0.116452038909E+04   -0.34168E-05   -0.16769E-04  4087   0.133E-02
   2 F= -.11645204E+04 E0= -.11645081E+04  d E =-.184845E+00  mag=    -0.0042
       N       E                     dE             d eps       ncg     rms          rms(c)
DAV:   1    -0.116451535523E+04    0.50304E-02   -0.13596E+01  7072   0.424E+00    0.132E+00
RMM:   2    -0.116456549556E+04   -0.50140E-01   -0.40277E-01  6144   0.771E-01    0.122E+00
RMM:   3    -0.116454438125E+04    0.21114E-01   -0.26345E-02  6105   0.191E-01    0.944E-01
RMM:   4    -0.116454332592E+04    0.10553E-02   -0.36633E-03  6932   0.579E-02    0.702E-01
RMM:   5    -0.116456274239E+04   -0.19416E-01   -0.79295E-03  6055   0.673E-02    0.124E+00
RMM:   6    -0.116455803417E+04    0.47082E-02   -0.10662E-03  5371   0.233E-02    0.123E+00
RMM:   7    -0.116456590007E+04   -0.78659E-02   -0.79198E-03  6045   0.568E-02    0.109E+00
RMM:   8    -0.116457076295E+04   -0.48629E-02   -0.59845E-02  6110   0.155E-01    0.739E-01
RMM:   9    -0.116456658956E+04    0.41734E-02   -0.72146E-03  6690   0.614E-02    0.243E-01
RMM:  10    -0.116456692844E+04   -0.33887E-03   -0.10366E-03  5705   0.256E-02    0.121E-01
RMM:  11    -0.116456720373E+04   -0.27529E-03   -0.78534E-04  5220   0.207E-02    0.732E-02
RMM:  12    -0.116456727918E+04   -0.75450E-04   -0.32676E-04  4365   0.151E-02
   3 F= -.11645673E+04 E0= -.11645474E+04  d E =-.231735E+00  mag=    -0.5392
       N       E                     dE             d eps       ncg     rms          rms(c)
DAV:   1    -0.116447304585E+04    0.94158E-01   -0.54564E+01  6736   0.844E+00    0.271E+00
RMM:   2    -0.116467516344E+04   -0.20212E+00   -0.16446E+00  6144   0.154E+00    0.193E+00
RMM:   3    -0.116468082125E+04   -0.56578E-02   -0.10738E-01  6228   0.366E-01    0.133E+00
RMM:   4    -0.116470630231E+04   -0.25481E-01   -0.66167E-02  6558   0.209E-01    0.853E-01
RMM:   5    -0.116471035872E+04   -0.40564E-02   -0.25805E-02  6762   0.140E-01    0.471E-01
RMM:   6    -0.116471311422E+04   -0.27555E-02   -0.67646E-03  7206   0.655E-02    0.268E-01
RMM:   7    -0.116471453196E+04   -0.14177E-02   -0.23463E-03  7020   0.415E-02    0.139E-01
RMM:   8    -0.116471499272E+04   -0.46076E-03   -0.71288E-04  6386   0.228E-02    0.791E-02
RMM:   9    -0.116471519208E+04   -0.19935E-03   -0.29903E-04  5040   0.146E-02    0.542E-02
RMM:  10    -0.116471529455E+04   -0.10247E-03   -0.14130E-04  4173   0.106E-02    0.334E-02
RMM:  11    -0.116471534841E+04   -0.53860E-04   -0.90539E-05  3789   0.853E-03
   4 F= -.11647153E+04 E0= -.11647113E+04  d E =-.379805E+00  mag=    -2.0748
       N       E                     dE             d eps       ncg     rms          rms(c)
DAV:   1    -0.116396197920E+04    0.75332E+00   -0.21528E+02  6288   0.167E+01    0.355E+00
RMM:   2    -0.116442752987E+04   -0.46555E+00   -0.62269E+00  6144   0.308E+00    0.335E+00
RMM:   3    -0.116438769369E+04    0.39836E-01   -0.22998E-01  6385   0.643E-01    0.223E+00
RMM:   4    -0.116435823437E+04    0.29459E-01   -0.10328E-01  6509   0.301E-01    0.134E+00
RMM:   5    -0.116435009425E+04    0.81401E-02   -0.31529E-02  6449   0.161E-01    0.445E-01
RMM:   6    -0.116435053359E+04   -0.43933E-03   -0.35070E-03  7344   0.558E-02    0.317E-01
RMM:   7    -0.116435104793E+04   -0.51435E-03   -0.27933E-03  6404   0.463E-02    0.133E-01
RMM:   8    -0.116435117513E+04   -0.12720E-03   -0.63857E-04  5613   0.244E-02    0.792E-02
RMM:   9    -0.116435122073E+04   -0.45603E-04   -0.20472E-04  4265   0.141E-02
   5 F= -.11643512E+04 E0= -.11643486E+04  d E =-.156770E-01  mag=    -2.0611
       N       E                     dE             d eps       ncg     rms          rms(c)
DAV:   1    -0.116446427712E+04   -0.11310E+00   -0.15515E+02  6224   0.142E+01    0.299E+00
RMM:   2    -0.116477782730E+04   -0.31355E+00   -0.43403E+00  6144   0.259E+00    0.282E+00
RMM:   3    -0.116475497672E+04    0.22851E-01   -0.17241E-01  6472   0.541E-01    0.196E+00
RMM:   4    -0.116473726626E+04    0.17710E-01   -0.77846E-02  6440   0.260E-01    0.131E+00
RMM:   5    -0.116472645327E+04    0.10813E-01   -0.27681E-02  6306   0.147E-01    0.346E-01
RMM:   6    -0.116472635473E+04    0.98540E-04   -0.29430E-03  7031   0.495E-02    0.229E-01
RMM:   7    -0.116472653659E+04   -0.18186E-03   -0.13387E-03  5997   0.322E-02    0.953E-02
RMM:   8    -0.116472663829E+04   -0.10170E-03   -0.23180E-04  4483   0.167E-02    0.506E-02
RMM:   9    -0.116472664938E+04   -0.11089E-04   -0.93990E-05  4172   0.100E-02
   6 F= -.11647266E+04 E0= -.11647231E+04  d E =-.391106E+00  mag=    -2.0797
       N       E                     dE             d eps       ncg     rms          rms(c)
DAV:   1    -0.116481005662E+04   -0.83418E-01   -0.14392E+01  6520   0.440E+00    0.111E+00
RMM:   2    -0.116483485814E+04   -0.24802E-01   -0.39076E-01  6144   0.776E-01    0.978E-01
RMM:   3    -0.116483161583E+04    0.32423E-02   -0.17247E-02  6328   0.172E-01    0.627E-01
RMM:   4    -0.116482972572E+04    0.18901E-02   -0.85519E-03  6592   0.850E-02    0.384E-01
RMM:   5    -0.116482879085E+04    0.93487E-03   -0.22674E-03  6348   0.432E-02    0.112E-01
RMM:   6    -0.116482878412E+04    0.67291E-05   -0.24994E-04  4463   0.154E-02    0.717E-02
RMM:   7    -0.116482878603E+04   -0.19181E-05   -0.11496E-04  4118   0.115E-02    0.367E-02
RMM:   8    -0.116482878785E+04   -0.18148E-05   -0.51128E-05  3814   0.800E-03
   7 F= -.11648288E+04 E0= -.11648252E+04  d E =-.102138E+00  mag=    -2.0806
       N       E                     dE             d eps       ncg     rms          rms(c)
DAV:   1    -0.116484053636E+04   -0.11750E-01   -0.66327E+00  6544   0.300E+00    0.760E-01
RMM:   2    -0.116485171247E+04   -0.11176E-01   -0.17680E-01  6144   0.525E-01    0.672E-01
RMM:   3    -0.116485030032E+04    0.14122E-02   -0.80066E-03  6351   0.116E-01    0.438E-01
RMM:   4    -0.116484949111E+04    0.80921E-03   -0.40971E-03  6488   0.590E-02    0.261E-01
RMM:   5    -0.116484908635E+04    0.40476E-03   -0.10567E-03  5830   0.299E-02    0.774E-02
RMM:   6    -0.116484908465E+04    0.17061E-05   -0.11898E-04  4138   0.115E-02    0.502E-02
RMM:   7    -0.116484909090E+04   -0.62567E-05   -0.61436E-05  3945   0.887E-03    0.268E-02
RMM:   8    -0.116484909591E+04   -0.50032E-05   -0.31940E-05  3690   0.657E-03
   8 F= -.11648491E+04 E0= -.11648456E+04  d E =-.122447E+00  mag=    -2.0811
       N       E                     dE             d eps       ncg     rms          rms(c)
DAV:   1    -0.116494364638E+04   -0.94555E-01   -0.48360E+00  6528   0.253E+00    0.678E-01
RMM:   2    -0.116495452204E+04   -0.10876E-01   -0.16694E-01  6144   0.521E-01    0.635E-01
RMM:   3    -0.116495309071E+04    0.14313E-02   -0.64132E-03  6314   0.101E-01    0.420E-01
RMM:   4    -0.116495208251E+04    0.10082E-02   -0.38569E-03  6325   0.603E-02    0.240E-01
RMM:   5    -0.116495161577E+04    0.46674E-03   -0.10395E-03  5690   0.328E-02    0.701E-02
RMM:   6    -0.116495162483E+04   -0.90569E-05   -0.99339E-05  4120   0.105E-02    0.513E-02
RMM:   7    -0.116495163868E+04   -0.13854E-04   -0.52306E-05  3857   0.786E-03    0.360E-02
RMM:   8    -0.116495166535E+04   -0.26667E-04   -0.41458E-05  3595   0.775E-03
   9 F= -.11649517E+04 E0= -.11649483E+04  d E =-.102569E+00  mag=    -2.0694
       N       E                     dE             d eps       ncg     rms          rms(c)
DAV:   1    -0.116500531109E+04   -0.53672E-01   -0.21529E+01  6384   0.533E+00    0.141E+00
RMM:   2    -0.116505350039E+04   -0.48189E-01   -0.74076E-01  6144   0.110E+00    0.130E+00
RMM:   3    -0.116504708716E+04    0.64132E-02   -0.28180E-02  6361   0.213E-01    0.843E-01
RMM:   4    -0.116504248715E+04    0.46000E-02   -0.16319E-02  6684   0.124E-01    0.492E-01
RMM:   5    -0.116504032910E+04    0.21580E-02   -0.44186E-03  6608   0.664E-02    0.132E-01
RMM:   6    -0.116504035450E+04   -0.25399E-04   -0.55967E-04  6125   0.199E-02    0.925E-02
RMM:   7    -0.116504039506E+04   -0.40562E-04   -0.21708E-04  4397   0.139E-02    0.585E-02
RMM:   8    -0.116504043796E+04   -0.42902E-04   -0.10659E-04  4123   0.106E-02
  10 F= -.11650404E+04 E0= -.11650379E+04  d E =-.191342E+00  mag=    -2.0420
       N       E                     dE             d eps       ncg     rms          rms(c)
DAV:   1    -0.116506087867E+04   -0.20484E-01   -0.25985E+00  6544   0.191E+00    0.466E-01
RMM:   2    -0.116506724528E+04   -0.63666E-02   -0.83786E-02  6144   0.358E-01    0.402E-01
RMM:   3    -0.116506677501E+04    0.47026E-03   -0.33232E-03  6611   0.739E-02    0.260E-01
RMM:   4    -0.116506653627E+04    0.23874E-03   -0.14711E-03  6295   0.357E-02    0.163E-01
RMM:   5    -0.116506634341E+04    0.19286E-03   -0.44947E-04  5317   0.205E-02    0.338E-02
RMM:   6    -0.116506634434E+04   -0.92410E-06   -0.51166E-05  3623   0.776E-03    0.246E-02
RMM:   7    -0.116506634738E+04   -0.30397E-05   -0.25951E-05  3542   0.569E-03    0.145E-02
RMM:   8    -0.116506635015E+04   -0.27723E-05   -0.14971E-05  3471   0.445E-03
  11 F= -.11650664E+04 E0= -.11650640E+04  d E =-.259122E-01  mag=    -2.0359
       N       E                     dE             d eps       ncg     rms          rms(c)
DAV:   1    -0.116506775419E+04   -0.14068E-02   -0.73849E+00  6400   0.321E+00    0.786E-01
RMM:   2    -0.116508576152E+04   -0.18007E-01   -0.23736E-01  6144   0.604E-01    0.676E-01
RMM:   3    -0.116508441364E+04    0.13479E-02   -0.93663E-03  6626   0.125E-01    0.438E-01
RMM:   4    -0.116508369407E+04    0.71957E-03   -0.39592E-03  6641   0.594E-02    0.275E-01
RMM:   5    -0.116508313797E+04    0.55610E-03   -0.13157E-03  6542   0.341E-02    0.559E-02
RMM:   6    -0.116508313537E+04    0.26001E-05   -0.15800E-04  4404   0.117E-02    0.412E-02
RMM:   7    -0.116508313719E+04   -0.18206E-05   -0.71907E-05  3715   0.863E-03    0.235E-02
RMM:   8    -0.116508314053E+04   -0.33400E-05   -0.40055E-05  3595   0.646E-03
  12 F= -.11650831E+04 E0= -.11650810E+04  d E =-.427026E-01  mag=    -2.0309
       N       E                     dE             d eps       ncg     rms          rms(c)
DAV:   1    -0.116509529169E+04   -0.12155E-01   -0.30728E+00  6432   0.211E+00    0.505E-01
RMM:   2    -0.116510220292E+04   -0.69112E-02   -0.89172E-02  6147   0.362E-01    0.373E-01
RMM:   3    -0.116510177910E+04    0.42381E-03   -0.35892E-03  6253   0.849E-02    0.231E-01
RMM:   4    -0.116510165802E+04    0.12108E-03   -0.15305E-03  6520   0.353E-02    0.138E-01
RMM:   5    -0.116510149457E+04    0.16345E-03   -0.41391E-04  5382   0.177E-02    0.310E-02
RMM:   6    -0.116510149660E+04   -0.20319E-05   -0.75177E-05  3657   0.810E-03    0.202E-02
RMM:   7    -0.116510149913E+04   -0.25251E-05   -0.35914E-05  3549   0.612E-03    0.110E-02
RMM:   8    -0.116510150086E+04   -0.17286E-05   -0.20546E-05  3417   0.462E-03
  13 F= -.11651015E+04 E0= -.11650994E+04  d E =-.183603E-01  mag=    -2.0290
       N       E                     dE             d eps       ncg     rms          rms(c)
DAV:   1    -0.116509169428E+04    0.98049E-02   -0.11718E+01  6352   0.411E+00    0.991E-01
RMM:   2    -0.116511797704E+04   -0.26283E-01   -0.33901E-01  6147   0.709E-01    0.727E-01
RMM:   3    -0.116511639502E+04    0.15820E-02   -0.13666E-02  6327   0.166E-01    0.450E-01
RMM:   4    -0.116511591303E+04    0.48199E-03   -0.54793E-03  6838   0.682E-02    0.269E-01
RMM:   5    -0.116511531775E+04    0.59528E-03   -0.15832E-03  7106   0.342E-02    0.590E-02
RMM:   6    -0.116511532919E+04   -0.11437E-04   -0.28085E-04  5128   0.144E-02    0.426E-02
RMM:   7    -0.116511534297E+04   -0.13779E-04   -0.15936E-04  4067   0.105E-02    0.224E-02
RMM:   8    -0.116511534971E+04   -0.67366E-05   -0.88820E-05  3692   0.815E-03
  14 F= -.11651153E+04 E0= -.11651132E+04  d E =-.322092E-01  mag=    -2.0270
       N       E                     dE             d eps       ncg     rms          rms(c)
DAV:   1    -0.116511859610E+04   -0.32531E-02   -0.41734E+00  6400   0.237E+00    0.447E-01
RMM:   2    -0.116512779935E+04   -0.92032E-02   -0.10729E-01  6150   0.395E-01    0.351E-01
RMM:   3    -0.116512738090E+04    0.41845E-03   -0.43441E-03  6172   0.931E-02    0.225E-01
RMM:   4    -0.116512716292E+04    0.21798E-03   -0.15884E-03  6623   0.361E-02    0.145E-01
RMM:   5    -0.116512699010E+04    0.17283E-03   -0.48244E-04  5690   0.194E-02    0.279E-02
RMM:   6    -0.116512699080E+04   -0.70236E-06   -0.47299E-05  3612   0.836E-03    0.196E-02
RMM:   7    -0.116512699365E+04   -0.28479E-05   -0.45795E-05  3540   0.657E-03    0.112E-02
RMM:   8    -0.116512699604E+04   -0.23967E-05   -0.28122E-05  3453   0.527E-03
  15 F= -.11651270E+04 E0= -.11651249E+04  d E =-.116463E-01  mag=    -2.0243
       N       E                     dE             d eps       ncg     rms          rms(c)
DAV:   1    -0.116511658743E+04    0.10406E-01   -0.81674E+00  6368   0.332E+00    0.626E-01
RMM:   2    -0.116513453121E+04   -0.17944E-01   -0.20914E-01  6150   0.553E-01    0.489E-01
RMM:   3    -0.116513372496E+04    0.80625E-03   -0.84079E-03  6194   0.130E-01    0.313E-01
RMM:   4    -0.116513330029E+04    0.42467E-03   -0.30640E-03  6892   0.503E-02    0.201E-01
RMM:   5    -0.116513296753E+04    0.33276E-03   -0.94139E-04  6397   0.264E-02    0.385E-02
RMM:   6    -0.116513296727E+04    0.26291E-06   -0.78753E-05  3824   0.102E-02    0.274E-02
RMM:   7    -0.116513297237E+04   -0.51042E-05   -0.81125E-05  3717   0.821E-03    0.152E-02
RMM:   8    -0.116513297463E+04   -0.22559E-05   -0.37167E-05  3596   0.655E-03
  16 F= -.11651330E+04 E0= -.11651309E+04  d E =-.176249E-01  mag=    -2.0206
       N       E                     dE             d eps       ncg     rms          rms(c)
DAV:   1    -0.116513427095E+04   -0.12986E-02   -0.39292E+00  6392   0.228E+00    0.382E-01
RMM:   2    -0.116514280273E+04   -0.85318E-02   -0.95919E-02  6150   0.370E-01    0.260E-01
RMM:   3    -0.116514249475E+04    0.30798E-03   -0.39101E-03  6134   0.883E-02    0.168E-01
RMM:   4    -0.116514230015E+04    0.19459E-03   -0.13304E-03  6369   0.332E-02    0.934E-02
RMM:   5    -0.116514222260E+04    0.77555E-04   -0.28722E-04  5104   0.157E-02    0.285E-02
RMM:   6    -0.116514222637E+04   -0.37762E-05   -0.36248E-05  3599   0.847E-03    0.162E-02
RMM:   7    -0.116514223113E+04   -0.47520E-05   -0.52119E-05  3583   0.666E-03    0.112E-02
RMM:   8    -0.116514223270E+04   -0.15715E-05   -0.26358E-05  3321   0.508E-03
  17 F= -.11651422E+04 E0= -.11651401E+04  d E =-.925807E-02  mag=    -2.0213
       N       E                     dE             d eps       ncg     rms          rms(c)
DAV:   1    -0.116512300600E+04    0.19225E-01   -0.12822E+01  6312   0.412E+00    0.694E-01
RMM:   2    -0.116515080738E+04   -0.27801E-01   -0.31250E-01  6150   0.669E-01    0.471E-01
RMM:   3    -0.116514983863E+04    0.96875E-03   -0.12609E-02  6194   0.160E-01    0.304E-01
RMM:   4    -0.116514920848E+04    0.63015E-03   -0.43338E-03  7201   0.597E-02    0.165E-01
RMM:   5    -0.116514897225E+04    0.23623E-03   -0.98310E-04  6837   0.265E-02    0.483E-02
RMM:   6    -0.116514898382E+04   -0.11569E-04   -0.14672E-04  4331   0.116E-02    0.321E-02
RMM:   7    -0.116514898961E+04   -0.57897E-05   -0.67770E-05  3816   0.924E-03    0.181E-02
RMM:   8    -0.116514899339E+04   -0.37810E-05   -0.56818E-05  3792   0.738E-03
  18 F= -.11651490E+04 E0= -.11651468E+04  d E =-.160188E-01  mag=    -2.0236
       N       E                     dE             d eps       ncg     rms          rms(c)
DAV:   1    -0.116514833498E+04    0.65462E-03   -0.32898E+00  6480   0.208E+00    0.374E-01
RMM:   2    -0.116515568077E+04   -0.73458E-02   -0.82871E-02  6148   0.346E-01    0.292E-01
RMM:   3    -0.116515538482E+04    0.29595E-03   -0.34095E-03  6291   0.805E-02    0.189E-01
RMM:   4    -0.116515521582E+04    0.16900E-03   -0.11044E-03  6345   0.307E-02    0.123E-01
RMM:   5    -0.116515509748E+04    0.11834E-03   -0.36878E-04  5592   0.174E-02    0.241E-02
RMM:   6    -0.116515509784E+04   -0.36234E-06   -0.25937E-05  3594   0.770E-03    0.163E-02
RMM:   7    -0.116515510119E+04   -0.33504E-05   -0.50090E-05  3540   0.629E-03    0.971E-03
RMM:   8    -0.116515510294E+04   -0.17464E-05   -0.27401E-05  3356   0.491E-03
  19 F= -.11651551E+04 E0= -.11651529E+04  d E =-.610955E-02  mag=    -2.0248
       N       E                     dE             d eps       ncg     rms          rms(c)
DAV:   1    -0.116515100198E+04    0.40992E-02   -0.29160E+00  6432   0.196E+00    0.352E-01
RMM:   2    -0.116515750541E+04   -0.65034E-02   -0.73334E-02  6148   0.326E-01    0.275E-01
RMM:   3    -0.116515724761E+04    0.25780E-03   -0.29966E-03  6228   0.757E-02    0.178E-01
RMM:   4    -0.116515709779E+04    0.14982E-03   -0.96860E-04  6209   0.289E-02    0.116E-01
RMM:   5    -0.116515699228E+04    0.10551E-03   -0.31814E-04  5271   0.164E-02    0.230E-02
RMM:   6    -0.116515699346E+04   -0.11825E-05   -0.30793E-05  3580   0.745E-03    0.151E-02
RMM:   7    -0.116515699597E+04   -0.25018E-05   -0.38182E-05  3485   0.594E-03    0.992E-03
RMM:   8    -0.116515699739E+04   -0.14250E-05   -0.22353E-05  3333   0.457E-03
  20 F= -.11651570E+04 E0= -.11651548E+04  d E =-.800400E-02  mag=    -2.0258
       N       E                     dE             d eps       ncg     rms          rms(c)
DAV:   1    -0.116515620432E+04    0.79164E-03   -0.23927E+00  6448   0.178E+00    0.335E-01
RMM:   2    -0.116516155236E+04   -0.53480E-02   -0.60460E-02  6148   0.298E-01    0.247E-01
RMM:   3    -0.116516134391E+04    0.20845E-03   -0.24577E-03  6228   0.692E-02    0.155E-01
RMM:   4    -0.116516123351E+04    0.11040E-03   -0.80139E-04  6149   0.264E-02    0.101E-01
RMM:   5    -0.116516115263E+04    0.80889E-04   -0.23124E-04  4555   0.146E-02    0.220E-02
RMM:   6    -0.116516115592E+04   -0.32921E-05   -0.40517E-05  3559   0.749E-03    0.136E-02
RMM:   7    -0.116516115775E+04   -0.18296E-05   -0.29602E-05  3436   0.573E-03    0.107E-02
RMM:   8    -0.116516115902E+04   -0.12742E-05   -0.19047E-05  3245   0.426E-03
  21 F= -.11651612E+04 E0= -.11651590E+04  d E =-.416163E-02  mag=    -2.0251
       N       E                     dE             d eps       ncg     rms          rms(c)
DAV:   1    -0.116515784794E+04    0.33098E-02   -0.22420E+00  6440   0.173E+00    0.325E-01
RMM:   2    -0.116516286490E+04   -0.50170E-02   -0.56720E-02  6148   0.289E-01    0.239E-01
RMM:   3    -0.116516266970E+04    0.19520E-03   -0.23051E-03  6219   0.670E-02    0.150E-01
RMM:   4    -0.116516256675E+04    0.10295E-03   -0.75729E-04  6105   0.256E-02    0.973E-02
RMM:   5    -0.116516249070E+04    0.76048E-04   -0.21250E-04  4404   0.142E-02    0.214E-02
RMM:   6    -0.116516249425E+04   -0.35556E-05   -0.41064E-05  3561   0.742E-03    0.133E-02
RMM:   7    -0.116516249594E+04   -0.16897E-05   -0.27267E-05  3445   0.563E-03    0.106E-02
RMM:   8    -0.116516249713E+04   -0.11900E-05   -0.17651E-05  3230   0.418E-03
  22 F= -.11651625E+04 E0= -.11651604E+04  d E =-.549974E-02  mag=    -2.0243
       N       E                     dE             d eps       ncg     rms          rms(c)
DAV:   1    -0.116516033239E+04    0.21636E-02   -0.27988E+00  6384   0.194E+00    0.360E-01
RMM:   2    -0.116516637292E+04   -0.60405E-02   -0.69577E-02  6150   0.318E-01    0.257E-01
RMM:   3    -0.116516610330E+04    0.26962E-03   -0.28043E-03  6103   0.754E-02    0.161E-01
RMM:   4    -0.116516594826E+04    0.15505E-03   -0.95629E-04  6230   0.288E-02    0.954E-02
RMM:   5    -0.116516586899E+04    0.79268E-04   -0.24100E-04  4594   0.148E-02    0.234E-02
RMM:   6    -0.116516587231E+04   -0.33252E-05   -0.43442E-05  3567   0.782E-03    0.140E-02
RMM:   7    -0.116516587452E+04   -0.22051E-05   -0.34291E-05  3473   0.606E-03    0.106E-02
RMM:   8    -0.116516587590E+04   -0.13779E-05   -0.20698E-05  3296   0.455E-03
  23 F= -.11651659E+04 E0= -.11651637E+04  d E =-.337876E-02  mag=    -2.0252
       N       E                     dE             d eps       ncg     rms          rms(c)
DAV:   1    -0.116516446132E+04    0.14132E-02   -0.97890E-01  6496   0.114E+00    0.213E-01
RMM:   2    -0.116516658279E+04   -0.21215E-02   -0.24424E-02  6150   0.188E-01    0.152E-01
RMM:   3    -0.116516648553E+04    0.97262E-04   -0.99118E-04  5947   0.447E-02    0.955E-02
RMM:   4    -0.116516643139E+04    0.54139E-04   -0.34229E-04  4969   0.173E-02    0.575E-02
RMM:   5    -0.116516640335E+04    0.28044E-04   -0.84376E-05  3642   0.987E-03    0.129E-02
RMM:   6    -0.116516640591E+04   -0.25585E-05   -0.26006E-05  3459   0.553E-03    0.886E-03
RMM:   7    -0.116516640688E+04   -0.97413E-06   -0.14036E-05  3225   0.418E-03    0.564E-03
RMM:   8    -0.116516640761E+04   -0.73291E-06   -0.88009E-06  3044   0.324E-03
  24 F= -.11651664E+04 E0= -.11651642E+04  d E =-.391048E-02  mag=    -2.0259
       N       E                     dE             d eps       ncg     rms          rms(c)
DAV:   1    -0.116516339941E+04    0.30075E-02   -0.25866E+00  6384   0.188E+00    0.338E-01
RMM:   2    -0.116516901133E+04   -0.56119E-02   -0.65565E-02  6148   0.312E-01    0.256E-01
RMM:   3    -0.116516877498E+04    0.23635E-03   -0.26574E-03  6150   0.726E-02    0.163E-01
RMM:   4    -0.116516863848E+04    0.13650E-03   -0.86031E-04  6168   0.272E-02    0.109E-01
RMM:   5    -0.116516853863E+04    0.99848E-04   -0.28390E-04  4754   0.160E-02    0.225E-02
RMM:   6    -0.116516854151E+04   -0.28716E-05   -0.46344E-05  3567   0.781E-03    0.145E-02
RMM:   7    -0.116516854367E+04   -0.21661E-05   -0.29072E-05  3484   0.592E-03    0.994E-03
RMM:   8    -0.116516854501E+04   -0.13347E-05   -0.17772E-05  3305   0.437E-03
  25 F= -.11651685E+04 E0= -.11651664E+04  d E =-.213739E-02  mag=    -2.0268
       N       E                     dE             d eps       ncg     rms          rms(c)
DAV:   1    -0.116516851924E+04    0.24428E-04   -0.18705E-02  6688   0.160E-01    0.284E-02
RMM:   2    -0.116516856072E+04   -0.41480E-04   -0.48237E-04  4878   0.268E-02    0.234E-02
RMM:   3    -0.116516855999E+04    0.73922E-06   -0.26297E-05  3393   0.774E-03    0.137E-02
RMM:   4    -0.116516855976E+04    0.22579E-06   -0.10273E-05  3172   0.364E-03    0.114E-02
RMM:   5    -0.116516855899E+04    0.77434E-06   -0.43040E-06  2364   0.263E-03    0.259E-03
RMM:   6    -0.116516855911E+04   -0.12944E-06   -0.16785E-06  1483   0.214E-03    0.138E-03
RMM:   7    -0.116516855914E+04   -0.23341E-07   -0.38300E-07   796   0.191E-03    0.941E-04
RMM:   8    -0.116516855914E+04   -0.70140E-08   -0.16422E-07   707   0.187E-03
  26 F= -.11651686E+04 E0= -.11651664E+04  d E =-.215153E-02  mag=    -2.0270
       N       E                     dE             d eps       ncg     rms          rms(c)
DAV:   1    -0.116516777412E+04    0.78502E-03   -0.87325E-01  6464   0.111E+00    0.217E-01
RMM:   2    -0.116516974357E+04   -0.19694E-02   -0.23299E-02  6146   0.188E-01    0.163E-01
RMM:   3    -0.116516966343E+04    0.80136E-04   -0.93038E-04  6054   0.435E-02    0.104E-01
RMM:   4    -0.116516961775E+04    0.45682E-04   -0.30905E-04  4769   0.169E-02    0.637E-02
RMM:   5    -0.116516958425E+04    0.33503E-04   -0.82233E-05  3844   0.103E-02    0.135E-02
RMM:   6    -0.116516958680E+04   -0.25547E-05   -0.23244E-05  3495   0.547E-03    0.897E-03
RMM:   7    -0.116516958777E+04   -0.96740E-06   -0.11379E-05  3238   0.414E-03    0.626E-03
RMM:   8    -0.116516958850E+04   -0.73272E-06   -0.73908E-06  2928   0.301E-03
  27 F= -.11651696E+04 E0= -.11651674E+04  d E =-.102936E-02  mag=    -2.0261
