       N       E                     dE             d eps       ncg     rms          rms(c)
DAV:   1    -0.116221197151E+04   -0.11622E+04   -0.12542E-06  3184   0.162E-03    0.747E-04
RMM:   2    -0.116221197151E+04    0.45111E-08    0.00000E+00   381   0.754E-04    0.449E-04
RMM:   3    -0.116221197151E+04    0.24447E-08    0.00000E+00   222   0.763E-04    0.238E-04
RMM:   4    -0.116221197151E+04   -0.45111E-09    0.00000E+00   138   0.774E-04    0.458E-05
RMM:   5    -0.116221197151E+04   -0.58208E-10    0.00000E+00   116   0.776E-04    0.299E-05
RMM:   6    -0.116221197151E+04    0.14552E-09    0.00000E+00   101   0.778E-04    0.170E-05
RMM:   7    -0.116221197151E+04   -0.13097E-09    0.00000E+00    94   0.779E-04    0.111E-05
RMM:   8    -0.116221197151E+04    0.10186E-09    0.00000E+00    84   0.779E-04
   1 F= -.11622120E+04 E0= -.11622120E+04  d E =-.116221E+04  mag=    -4.0000
       N       E                     dE             d eps       ncg     rms          rms(c)
DAV:   1    -0.116221212241E+04   -0.15090E-03   -0.11712E-01  6016   0.381E-01    0.695E-02
RMM:   2    -0.116221237632E+04   -0.25391E-03   -0.28527E-03  6080   0.658E-02    0.493E-02
RMM:   3    -0.116221236924E+04    0.70833E-05   -0.11944E-04  3337   0.226E-02    0.335E-02
RMM:   4    -0.116221236369E+04    0.55454E-05   -0.43574E-05  3150   0.831E-03    0.229E-02
RMM:   5    -0.116221236250E+04    0.11959E-05   -0.11134E-05  2818   0.509E-03    0.923E-03
RMM:   6    -0.116221236298E+04   -0.48106E-06   -0.39889E-06  2225   0.306E-03    0.590E-03
RMM:   7    -0.116221236312E+04   -0.13960E-06   -0.16848E-06  1598   0.255E-03    0.322E-03
RMM:   8    -0.116221236316E+04   -0.46668E-07   -0.51262E-07  1053   0.197E-03
   2 F= -.11622124E+04 E0= -.11622124E+04  d E =-.391656E-03  mag=    -4.0000
       N       E                     dE             d eps       ncg     rms          rms(c)
DAV:   1    -0.116221244816E+04   -0.85043E-04   -0.53888E-03  5640   0.821E-02    0.152E-02
RMM:   2    -0.116221245839E+04   -0.10231E-04   -0.12654E-04  3286   0.149E-02    0.126E-02
RMM:   3    -0.116221245944E+04   -0.10465E-05   -0.12215E-05  2913   0.631E-03    0.731E-03
RMM:   4    -0.116221245925E+04    0.18462E-06   -0.30524E-06  2184   0.290E-03    0.599E-03
RMM:   5    -0.116221245907E+04    0.18154E-06   -0.13490E-06  1597   0.237E-03    0.241E-03
RMM:   6    -0.116221245911E+04   -0.32218E-07   -0.56385E-07  1031   0.192E-03    0.108E-03
RMM:   7    -0.116221245912E+04   -0.13431E-07   -0.14801E-07   641   0.180E-03    0.662E-04
RMM:   8    -0.116221245911E+04    0.57771E-08   -0.16672E-08   499   0.174E-03
   3 F= -.11622125E+04 E0= -.11622125E+04  d E =-.959483E-04  mag=    -4.0000
       N       E                     dE             d eps       ncg     rms          rms(c)
DAV:   1    -0.116221229303E+04    0.16609E-03   -0.16051E-02  5968   0.141E-01    0.248E-02
RMM:   2    -0.116221232420E+04   -0.31167E-04   -0.35576E-04  3829   0.241E-02    0.183E-02
RMM:   3    -0.116221232525E+04   -0.10498E-05   -0.24038E-05  2985   0.985E-03    0.107E-02
RMM:   4    -0.116221232476E+04    0.49020E-06   -0.67523E-06  2649   0.378E-03    0.799E-03
RMM:   5    -0.116221232443E+04    0.32829E-06   -0.16611E-06  1858   0.254E-03    0.245E-03
RMM:   6    -0.116221232447E+04   -0.38228E-07   -0.41625E-07   841   0.185E-03    0.102E-03
RMM:   7    -0.116221232449E+04   -0.16618E-07   -0.11876E-07   590   0.181E-03    0.565E-04
RMM:   8    -0.116221232449E+04   -0.27794E-08   -0.11200E-08   409   0.171E-03
   4 F= -.11622123E+04 E0= -.11622123E+04  d E =0.134624E-03  mag=    -4.0000
       N       E                     dE             d eps       ncg     rms          rms(c)
DAV:   1    -0.116221180505E+04    0.51944E-03   -0.12022E-01  6016   0.388E-01    0.657E-02
RMM:   2    -0.116221207229E+04   -0.26724E-03   -0.29109E-03  6201   0.670E-02    0.443E-02
RMM:   3    -0.116221206683E+04    0.54606E-05   -0.12068E-04  3287   0.225E-02    0.302E-02
RMM:   4    -0.116221206158E+04    0.52528E-05   -0.42773E-05  3078   0.833E-03    0.173E-02
RMM:   5    -0.116221206165E+04   -0.69820E-07   -0.10270E-05  2775   0.492E-03    0.820E-03
RMM:   6    -0.116221206212E+04   -0.47922E-06   -0.40846E-06  2107   0.312E-03    0.487E-03
RMM:   7    -0.116221206231E+04   -0.18990E-06   -0.18286E-06  1584   0.256E-03    0.288E-03
RMM:   8    -0.116221206242E+04   -0.10150E-06   -0.82459E-07  1103   0.210E-03
   5 F= -.11622121E+04 E0= -.11622121E+04  d E =0.262073E-03  mag=    -4.0000
       N       E                     dE             d eps       ncg     rms          rms(c)
DAV:   1    -0.116221201307E+04    0.49242E-04   -0.14712E-02  6016   0.138E-01    0.252E-02
RMM:   2    -0.116221204377E+04   -0.30697E-04   -0.33762E-04  4045   0.242E-02    0.191E-02
RMM:   3    -0.116221204580E+04   -0.20271E-05   -0.26395E-05  3047   0.102E-02    0.106E-02
RMM:   4    -0.116221204573E+04    0.70431E-07   -0.82487E-06  2762   0.409E-03    0.862E-03
RMM:   5    -0.116221204545E+04    0.27310E-06   -0.26969E-06  2108   0.300E-03    0.286E-03
RMM:   6    -0.116221204554E+04   -0.86642E-07   -0.85538E-07  1029   0.206E-03    0.102E-03
RMM:   7    -0.116221204558E+04   -0.36394E-07   -0.36001E-07   853   0.202E-03    0.654E-04
RMM:   8    -0.116221204559E+04   -0.10841E-07   -0.94808E-08   573   0.184E-03
   6 F= -.11622120E+04 E0= -.11622120E+04  d E =0.168284E-04  mag=    -4.0000
       N       E                     dE             d eps       ncg     rms          rms(c)
DAV:   1    -0.116221207994E+04   -0.34359E-04   -0.88021E-04  5600   0.331E-02    0.626E-03
RMM:   2    -0.116221208170E+04   -0.17667E-05   -0.20681E-05  3049   0.614E-03    0.428E-03
RMM:   3    -0.116221208189E+04   -0.19015E-06   -0.17456E-06  1916   0.281E-03    0.273E-03
RMM:   4    -0.116221208183E+04    0.59823E-07   -0.11113E-07   546   0.173E-03    0.179E-03
RMM:   5    -0.116221208181E+04    0.24142E-07   -0.15112E-07   564   0.175E-03    0.396E-04
RMM:   6    -0.116221208181E+04   -0.33033E-08   -0.33860E-08   424   0.170E-03    0.224E-04
RMM:   7    -0.116221208181E+04    0.10186E-08   -0.23759E-09   379   0.169E-03    0.147E-04
RMM:   8    -0.116221208181E+04   -0.27649E-09   -0.67812E-09   359   0.170E-03
   7 F= -.11622121E+04 E0= -.11622121E+04  d E =-.362237E-04  mag=    -4.0000
       N       E                     dE             d eps       ncg     rms          rms(c)
DAV:   1    -0.116221205532E+04    0.26489E-04   -0.29288E-04  4768   0.184E-02    0.379E-03
RMM:   2    -0.116221205581E+04   -0.48630E-06   -0.60646E-06  2430   0.344E-03    0.255E-03
RMM:   3    -0.116221205582E+04   -0.12835E-07   -0.19651E-07   769   0.175E-03    0.152E-03
RMM:   4    -0.116221205579E+04    0.26688E-07   -0.28424E-08   346   0.158E-03    0.809E-04
RMM:   5    -0.116221205579E+04    0.34779E-08   -0.17964E-08   321   0.160E-03    0.180E-04
RMM:   6    -0.116221205579E+04   -0.14552E-10   -0.25110E-09   269   0.159E-03    0.106E-04
RMM:   7    -0.116221205579E+04    0.18917E-09    0.00000E+00   262   0.159E-03    0.726E-05
RMM:   8    -0.116221205579E+04   -0.61118E-09   -0.13464E-09   262   0.159E-03
   8 F= -.11622121E+04 E0= -.11622121E+04  d E =0.260200E-04  mag=    -4.0000
       N       E                     dE             d eps       ncg     rms          rms(c)
DAV:   1    -0.116221166988E+04    0.38591E-03   -0.46322E-02  6016   0.239E-01    0.437E-02
RMM:   2    -0.116221177047E+04   -0.10059E-03   -0.10940E-03  5870   0.396E-02    0.306E-02
RMM:   3    -0.116221176901E+04    0.14621E-05   -0.45322E-05  3093   0.137E-02    0.205E-02
RMM:   4    -0.116221176728E+04    0.17263E-05   -0.16046E-05  2959   0.505E-03    0.137E-02
RMM:   5    -0.116221176752E+04   -0.23760E-06   -0.34595E-06  2338   0.320E-03    0.557E-03
RMM:   6    -0.116221176770E+04   -0.17612E-06   -0.10365E-06  1285   0.215E-03    0.217E-03
RMM:   7    -0.116221176775E+04   -0.56374E-07   -0.33189E-07   936   0.200E-03    0.138E-03
RMM:   8    -0.116221176778E+04   -0.26674E-07   -0.32099E-08   569   0.179E-03
   9 F= -.11622118E+04 E0= -.11622118E+04  d E =0.288012E-03  mag=    -4.0000
       N       E                     dE             d eps       ncg     rms          rms(c)
DAV:   1    -0.116221128226E+04    0.48549E-03   -0.69619E-02  6048   0.287E-01    0.496E-02
RMM:   2    -0.116221143101E+04   -0.14876E-03   -0.16019E-03  5926   0.466E-02    0.325E-02
RMM:   3    -0.116221142832E+04    0.26937E-05   -0.67106E-05  3327   0.166E-02    0.221E-02
RMM:   4    -0.116221142568E+04    0.26399E-05   -0.23229E-05  3137   0.590E-03    0.127E-02
RMM:   5    -0.116221142619E+04   -0.50951E-06   -0.53320E-06  2458   0.359E-03    0.349E-03
RMM:   6    -0.116221142646E+04   -0.26950E-06   -0.18549E-06  1602   0.245E-03    0.242E-03
RMM:   7    -0.116221142655E+04   -0.89451E-07   -0.64495E-07  1127   0.221E-03    0.121E-03
RMM:   8    -0.116221142660E+04   -0.48807E-07   -0.22570E-07   786   0.196E-03
  10 F= -.11622114E+04 E0= -.11622114E+04  d E =0.341181E-03  mag=    -4.0000
       N       E                     dE             d eps       ncg     rms          rms(c)
DAV:   1    -0.116221135700E+04    0.69548E-04   -0.28143E-03  5712   0.564E-02    0.971E-03
RMM:   2    -0.116221136258E+04   -0.55770E-05   -0.61149E-05  3174   0.966E-03    0.657E-03
RMM:   3    -0.116221136313E+04   -0.54901E-06   -0.55779E-06  2558   0.422E-03    0.427E-03
RMM:   4    -0.116221136308E+04    0.45460E-07   -0.88469E-07  1123   0.206E-03    0.313E-03
RMM:   5    -0.116221136303E+04    0.47949E-07   -0.40199E-07   876   0.192E-03    0.109E-03
RMM:   6    -0.116221136305E+04   -0.17288E-07   -0.17560E-07   640   0.178E-03    0.508E-04
RMM:   7    -0.116221136306E+04   -0.37107E-08   -0.27403E-08   511   0.174E-03    0.341E-04
RMM:   8    -0.116221136306E+04   -0.85856E-09   -0.44555E-09   440   0.173E-03
  11 F= -.11622114E+04 E0= -.11622114E+04  d E =0.635419E-04  mag=    -4.0000
       N       E                     dE             d eps       ncg     rms          rms(c)
DAV:   1    -0.116221123798E+04    0.12508E-03   -0.15909E-02  5984   0.135E-01    0.247E-02
RMM:   2    -0.116221126967E+04   -0.31695E-04   -0.34914E-04  3775   0.223E-02    0.216E-02
RMM:   3    -0.116221127082E+04   -0.11533E-05   -0.22073E-05  2986   0.868E-03    0.126E-02
RMM:   4    -0.116221127051E+04    0.31033E-06   -0.61161E-06  2637   0.358E-03    0.981E-03
RMM:   5    -0.116221127007E+04    0.44011E-06   -0.20002E-06  1928   0.255E-03    0.302E-03
RMM:   6    -0.116221127016E+04   -0.85172E-07   -0.54172E-07  1089   0.193E-03    0.137E-03
RMM:   7    -0.116221127018E+04   -0.20082E-07   -0.11733E-07   714   0.182E-03    0.865E-04
RMM:   8    -0.116221127019E+04   -0.89785E-08   -0.18337E-08   537   0.175E-03
  12 F= -.11622113E+04 E0= -.11622113E+04  d E =0.928676E-04  mag=    -4.0000
       N       E                     dE             d eps       ncg     rms          rms(c)
DAV:   1    -0.116221117730E+04    0.92881E-04   -0.12070E-02  5872   0.113E-01    0.216E-02
RMM:   2    -0.116221120101E+04   -0.23708E-04   -0.25482E-04  3521   0.183E-02    0.157E-02
RMM:   3    -0.116221120206E+04   -0.10557E-05   -0.17534E-05  2943   0.743E-03    0.954E-03
RMM:   4    -0.116221120166E+04    0.40667E-06   -0.45655E-06  2321   0.321E-03    0.615E-03
RMM:   5    -0.116221120159E+04    0.66939E-07   -0.16764E-06  1851   0.246E-03    0.196E-03
RMM:   6    -0.116221120164E+04   -0.55865E-07   -0.36224E-07   861   0.185E-03    0.945E-04
RMM:   7    -0.116221120166E+04   -0.13475E-07   -0.80267E-08   650   0.175E-03    0.554E-04
RMM:   8    -0.116221120166E+04   -0.32160E-08   -0.19212E-08   515   0.171E-03
  13 F= -.11622112E+04 E0= -.11622112E+04  d E =0.685278E-04  mag=    -4.0000
       N       E                     dE             d eps       ncg     rms          rms(c)
DAV:   1    -0.116221109337E+04    0.10828E-03   -0.13601E-02  5904   0.117E-01    0.223E-02
RMM:   2    -0.116221111989E+04   -0.26520E-04   -0.28364E-04  3604   0.186E-02    0.156E-02
RMM:   3    -0.116221112081E+04   -0.91452E-06   -0.18477E-05  2918   0.755E-03    0.965E-03
RMM:   4    -0.116221112028E+04    0.52612E-06   -0.50469E-06  2281   0.326E-03    0.584E-03
RMM:   5    -0.116221112029E+04   -0.20518E-08   -0.17907E-06  1838   0.249E-03    0.245E-03
RMM:   6    -0.116221112035E+04   -0.65600E-07   -0.41088E-07   870   0.185E-03    0.978E-04
RMM:   7    -0.116221112037E+04   -0.20096E-07   -0.11771E-07   674   0.176E-03    0.582E-04
RMM:   8    -0.116221112038E+04   -0.75815E-08   -0.15815E-08   526   0.169E-03
  14 F= -.11622111E+04 E0= -.11622111E+04  d E =0.812825E-04  mag=    -4.0000
       N       E                     dE             d eps       ncg     rms          rms(c)
DAV:   1    -0.116221108107E+04    0.39302E-04   -0.52416E-03  5704   0.742E-02    0.141E-02
RMM:   2    -0.116221109109E+04   -0.10023E-04   -0.10932E-04  3231   0.120E-02    0.102E-02
RMM:   3    -0.116221109177E+04   -0.67410E-06   -0.85264E-06  2708   0.490E-03    0.632E-03
RMM:   4    -0.116221109163E+04    0.13201E-06   -0.16715E-06  1453   0.234E-03    0.433E-03
RMM:   5    -0.116221109157E+04    0.60681E-07   -0.71044E-07  1106   0.203E-03    0.137E-03
RMM:   6    -0.116221109159E+04   -0.14814E-07   -0.12383E-07   649   0.180E-03    0.636E-04
RMM:   7    -0.116221109159E+04   -0.22847E-08   -0.22817E-08   517   0.176E-03    0.393E-04
RMM:   8    -0.116221109159E+04    0.13679E-08   -0.13439E-08   455   0.175E-03
  15 F= -.11622111E+04 E0= -.11622111E+04  d E =0.287895E-04  mag=    -4.0000
       N       E                     dE             d eps       ncg     rms          rms(c)
DAV:   1    -0.116221108305E+04    0.85378E-05   -0.29049E-04  4584   0.173E-02    0.325E-03
RMM:   2    -0.116221108373E+04   -0.67614E-06   -0.69804E-06  2477   0.350E-03    0.221E-03
RMM:   3    -0.116221108377E+04   -0.43830E-07   -0.29309E-07   923   0.186E-03    0.143E-03
RMM:   4    -0.116221108376E+04    0.14028E-07   -0.24505E-08   398   0.162E-03    0.797E-04
RMM:   5    -0.116221108376E+04    0.32887E-08   -0.17125E-08   353   0.162E-03    0.200E-04
RMM:   6    -0.116221108376E+04    0.58208E-10   -0.85793E-10   302   0.162E-03    0.990E-05
RMM:   7    -0.116221108376E+04   -0.39290E-09   -0.67241E-10   291   0.162E-03    0.654E-05
RMM:   8    -0.116221108376E+04   -0.11642E-09   -0.14071E-09   276   0.162E-03
  16 F= -.11622111E+04 E0= -.11622111E+04  d E =0.783330E-05  mag=    -4.0000
       N       E                     dE             d eps       ncg     rms          rms(c)
DAV:   1    -0.116221109211E+04   -0.83531E-05   -0.16849E-04  3960   0.126E-02    0.265E-03
RMM:   2    -0.116221109238E+04   -0.27212E-06   -0.30038E-06  1737   0.249E-03    0.154E-03
RMM:   3    -0.116221109239E+04   -0.79599E-08   -0.79884E-08   370   0.151E-03    0.977E-04
RMM:   4    -0.116221109238E+04    0.62719E-08   -0.15768E-08   248   0.146E-03    0.398E-04
RMM:   5    -0.116221109238E+04   -0.58208E-09   -0.92403E-10   229   0.147E-03    0.112E-04
RMM:   6    -0.116221109238E+04   -0.30559E-09    0.00000E+00   215   0.147E-03    0.562E-05
RMM:   7    -0.116221109238E+04   -0.58208E-10   -0.65208E-10   205   0.147E-03    0.297E-05
RMM:   8    -0.116221109238E+04   -0.72760E-10   -0.81524E-10   197   0.147E-03
  17 F= -.11622111E+04 E0= -.11622111E+04  d E =-.862783E-05  mag=    -4.0000
       N       E                     dE             d eps       ncg     rms          rms(c)
DAV:   1    -0.116221098791E+04    0.10447E-03   -0.55254E-03  5776   0.852E-02    0.167E-02
RMM:   2    -0.116221099934E+04   -0.11433E-04   -0.12347E-04  3158   0.146E-02    0.109E-02
RMM:   3    -0.116221100056E+04   -0.12160E-05   -0.10460E-05  2974   0.608E-03    0.664E-03
RMM:   4    -0.116221100044E+04    0.12161E-06   -0.17661E-06  1680   0.254E-03    0.465E-03
RMM:   5    -0.116221100032E+04    0.11898E-06   -0.65576E-07  1095   0.213E-03    0.157E-03
RMM:   6    -0.116221100034E+04   -0.22002E-07   -0.18350E-07   544   0.182E-03    0.505E-04
RMM:   7    -0.116221100035E+04   -0.55879E-08   -0.37252E-08   415   0.178E-03    0.315E-04
RMM:   8    -0.116221100035E+04   -0.16444E-08   -0.92896E-09   351   0.177E-03
  18 F= -.11622110E+04 E0= -.11622110E+04  d E =0.920340E-04  mag=    -4.0000
