       N       E                     dE             d eps       ncg     rms          rms(c)
DAV:   1     0.118964969815E+05    0.11896E+05   -0.42043E+05  6168   0.131E+03
DAV:   2     0.642725483647E+03   -0.11254E+05   -0.10053E+05  6152   0.375E+02
DAV:   3    -0.136600080339E+04   -0.20087E+04   -0.19360E+04  6600   0.165E+02
DAV:   4    -0.150028694928E+04   -0.13429E+03   -0.13208E+03  8144   0.442E+01
DAV:   5    -0.150866998822E+04   -0.83830E+01   -0.83440E+01 11056   0.101E+01    0.179E+02
RMM:   6    -0.116491120257E+04    0.34376E+03   -0.15858E+03  6264   0.344E+01    0.107E+02
RMM:   7    -0.115079268358E+04    0.14119E+02   -0.60069E+01  6406   0.110E+01    0.627E+01
RMM:   8    -0.115449312882E+04   -0.37004E+01   -0.21715E+01  6755   0.534E+00    0.264E+01
RMM:   9    -0.115783392673E+04   -0.33408E+01   -0.59717E+00  6559   0.283E+00    0.132E+01
RMM:  10    -0.115873088871E+04   -0.89696E+00   -0.21177E+00  6829   0.150E+00    0.915E+00
RMM:  11    -0.115977369736E+04   -0.10428E+01   -0.12653E+00  7364   0.975E-01    0.630E+00
RMM:  12    -0.116089860021E+04   -0.11249E+01   -0.96191E-01  6701   0.871E-01    0.375E+00
RMM:  13    -0.116124991542E+04   -0.35132E+00   -0.42868E-01  7186   0.632E-01    0.195E+00
RMM:  14    -0.116137415299E+04   -0.12424E+00   -0.16410E-01  7088   0.358E-01    0.137E+00
RMM:  15    -0.116145104395E+04   -0.76891E-01   -0.10758E-01  6851   0.288E-01    0.749E-01
RMM:  16    -0.116147693860E+04   -0.25895E-01   -0.38271E-02  7296   0.182E-01    0.497E-01
RMM:  17    -0.116148409531E+04   -0.71567E-02   -0.96445E-03  7523   0.906E-02    0.383E-01
RMM:  18    -0.116149121575E+04   -0.71204E-02   -0.70998E-03  6880   0.784E-02    0.202E-01
RMM:  19    -0.116149494529E+04   -0.37295E-02   -0.45358E-03  6295   0.607E-02    0.138E-01
RMM:  20    -0.116149646581E+04   -0.15205E-02   -0.21629E-03  5922   0.401E-02    0.104E-01
RMM:  21    -0.116149747976E+04   -0.10140E-02   -0.17334E-03  5651   0.371E-02    0.596E-02
RMM:  22    -0.116149782007E+04   -0.34031E-03   -0.96275E-04  5293   0.269E-02    0.274E-02
RMM:  23    -0.116149786629E+04   -0.46223E-04   -0.22567E-04  4484   0.133E-02
   1 F= -.11614979E+04 E0= -.11614979E+04  d E =-.116150E+04  mag=     6.0010
       N       E                     dE             d eps       ncg     rms          rms(c)
DAV:   1    -0.116160341246E+04   -0.10559E+00   -0.22543E+02  7088   0.168E+01    0.609E+00
RMM:   2    -0.116228509302E+04   -0.68168E+00   -0.89946E+00  6144   0.363E+00    0.570E+00
RMM:   3    -0.116225877872E+04    0.26314E-01   -0.53346E-01  6631   0.116E+00    0.431E+00
RMM:   4    -0.116221905354E+04    0.39725E-01   -0.18342E-01  6909   0.487E-01    0.268E+00
RMM:   5    -0.116221174970E+04    0.73038E-02   -0.67179E-02  6918   0.277E-01    0.813E-01
RMM:   6    -0.116221458433E+04   -0.28346E-02   -0.29094E-02  7179   0.203E-01    0.769E-01
RMM:   7    -0.116221531430E+04   -0.72997E-03   -0.50388E-03  8641   0.639E-02    0.395E-01
RMM:   8    -0.116221660540E+04   -0.12911E-02   -0.59250E-03  6820   0.783E-02    0.164E-01
RMM:   9    -0.116221667666E+04   -0.71254E-04   -0.83274E-04  5879   0.323E-02
   2 F= -.11622167E+04 E0= -.11622167E+04  d E =-.718810E+00  mag=     6.0001
       N       E                     dE             d eps       ncg     rms          rms(c)
DAV:   1    -0.116222431365E+04   -0.77082E-02   -0.29985E+00  7016   0.199E+00    0.732E-01
RMM:   2    -0.116223151009E+04   -0.71964E-02   -0.10667E-01  6145   0.413E-01    0.722E-01
RMM:   3    -0.116223099731E+04    0.51278E-03   -0.58005E-03  6331   0.129E-01    0.524E-01
RMM:   4    -0.116223047473E+04    0.52258E-03   -0.34177E-03  6142   0.668E-02    0.272E-01
RMM:   5    -0.116223040591E+04    0.68815E-04   -0.10140E-03  5545   0.372E-02    0.970E-02
RMM:   6    -0.116223041692E+04   -0.11006E-04   -0.10294E-04  3935   0.155E-02    0.723E-02
RMM:   7    -0.116223045007E+04   -0.33152E-04   -0.49319E-05  3695   0.832E-03    0.411E-02
RMM:   8    -0.116223050950E+04   -0.59430E-04   -0.58920E-05  3687   0.999E-03
   3 F= -.11622305E+04 E0= -.11622305E+04  d E =-.732643E+00  mag=     6.0000
       N       E                     dE             d eps       ncg     rms          rms(c)
DAV:   1    -0.116228991135E+04   -0.59461E-01   -0.99365E+01  6416   0.116E+01    0.281E+00
RMM:   2    -0.116252127856E+04   -0.23137E+00   -0.29551E+00  6162   0.218E+00    0.273E+00
RMM:   3    -0.116251618329E+04    0.50953E-02   -0.14474E-01  6564   0.680E-01    0.195E+00
RMM:   4    -0.116250874962E+04    0.74337E-02   -0.47203E-02  7218   0.234E-01    0.129E+00
RMM:   5    -0.116250158304E+04    0.71666E-02   -0.21484E-02  6852   0.156E-01    0.254E-01
RMM:   6    -0.116250168728E+04   -0.10424E-03   -0.26861E-03  7877   0.607E-02    0.177E-01
RMM:   7    -0.116250162706E+04    0.60220E-04   -0.11233E-03  7340   0.275E-02    0.106E-01
RMM:   8    -0.116250167428E+04   -0.47217E-04   -0.49365E-04  5530   0.240E-02
   4 F= -.11625017E+04 E0= -.11625017E+04  d E =-.271165E+00  mag=     6.0000
       N       E                     dE             d eps       ncg     rms          rms(c)
DAV:   1    -0.116250115578E+04    0.47128E-03   -0.52584E+00  6840   0.267E+00    0.644E-01
RMM:   2    -0.116251326891E+04   -0.12113E-01   -0.15498E-01  6163   0.496E-01    0.618E-01
RMM:   3    -0.116251298122E+04    0.28770E-03   -0.77914E-03  6502   0.157E-01    0.440E-01
RMM:   4    -0.116251264474E+04    0.33648E-03   -0.29188E-03  6967   0.564E-02    0.276E-01
RMM:   5    -0.116251231649E+04    0.32825E-03   -0.11853E-03  6105   0.361E-02    0.556E-02
RMM:   6    -0.116251233100E+04   -0.14518E-04   -0.12141E-04  4084   0.158E-02    0.412E-02
RMM:   7    -0.116251235483E+04   -0.23824E-04   -0.73244E-05  3858   0.101E-02    0.275E-02
RMM:   8    -0.116251238280E+04   -0.27969E-04   -0.41368E-05  3706   0.909E-03
   5 F= -.11625124E+04 E0= -.11625124E+04  d E =-.281873E+00  mag=     6.0000
       N       E                     dE             d eps       ncg     rms          rms(c)
DAV:   1    -0.116249158148E+04    0.20773E-01   -0.60312E+01  6352   0.909E+00    0.232E+00
RMM:   2    -0.116262436258E+04   -0.13278E+00   -0.17651E+00  6182   0.169E+00    0.212E+00
RMM:   3    -0.116261842342E+04    0.59392E-02   -0.87211E-02  6514   0.540E-01    0.137E+00
RMM:   4    -0.116261143826E+04    0.69852E-02   -0.34384E-02  7288   0.200E-01    0.751E-01
RMM:   5    -0.116260877475E+04    0.26635E-02   -0.96562E-03  6983   0.103E-01    0.184E-01
RMM:   6    -0.116260885865E+04   -0.83898E-04   -0.12806E-03  7538   0.398E-02    0.114E-01
RMM:   7    -0.116260890756E+04   -0.48919E-04   -0.50944E-04  5894   0.199E-02    0.729E-02
RMM:   8    -0.116260900407E+04   -0.96506E-04   -0.30827E-04  4767   0.192E-02
   6 F= -.11626090E+04 E0= -.11626090E+04  d E =-.966213E-01  mag=     5.9999
       N       E                     dE             d eps       ncg     rms          rms(c)
DAV:   1    -0.116260916498E+04   -0.25742E-03   -0.70103E-01  6936   0.981E-01    0.251E-01
RMM:   2    -0.116261071808E+04   -0.15531E-02   -0.20320E-02  6169   0.182E-01    0.225E-01
RMM:   3    -0.116261066311E+04    0.54977E-04   -0.96182E-04  5869   0.575E-02    0.145E-01
RMM:   4    -0.116261060140E+04    0.61706E-04   -0.31813E-04  4686   0.222E-02    0.765E-02
RMM:   5    -0.116261059920E+04    0.22068E-05   -0.10211E-04  3902   0.154E-02    0.287E-02
RMM:   6    -0.116261061086E+04   -0.11662E-04   -0.24271E-05  3517   0.758E-03    0.194E-02
RMM:   7    -0.116261062192E+04   -0.11065E-04   -0.10966E-05  3229   0.490E-03    0.150E-02
RMM:   8    -0.116261064354E+04   -0.21620E-04   -0.13939E-05  3284   0.485E-03
   7 F= -.11626106E+04 E0= -.11626106E+04  d E =-.982607E-01  mag=     5.9999
       N       E                     dE             d eps       ncg     rms          rms(c)
DAV:   1    -0.116260362258E+04    0.69993E-02   -0.32294E+01  6328   0.664E+00    0.152E+00
RMM:   2    -0.116267670493E+04   -0.73082E-01   -0.82738E-01  6194   0.115E+00    0.108E+00
RMM:   3    -0.116267652581E+04    0.17913E-03   -0.43163E-02  6370   0.402E-01    0.686E-01
RMM:   4    -0.116267406602E+04    0.24598E-02   -0.14743E-02  7591   0.130E-01    0.386E-01
RMM:   5    -0.116267358491E+04    0.48111E-03   -0.35797E-03  7403   0.571E-02    0.116E-01
RMM:   6    -0.116267362238E+04   -0.37468E-04   -0.52746E-04  5822   0.254E-02    0.702E-02
RMM:   7    -0.116267366732E+04   -0.44940E-04   -0.27299E-04  4736   0.160E-02    0.367E-02
RMM:   8    -0.116267370579E+04   -0.38471E-04   -0.15615E-04  4251   0.137E-02
   8 F= -.11626737E+04 E0= -.11626737E+04  d E =-.630622E-01  mag=     5.9999
       N       E                     dE             d eps       ncg     rms          rms(c)
DAV:   1    -0.116266551282E+04    0.81545E-02   -0.69531E+00  6472   0.308E+00    0.704E-01
RMM:   2    -0.116268124042E+04   -0.15728E-01   -0.17822E-01  6196   0.531E-01    0.502E-01
RMM:   3    -0.116268117375E+04    0.66668E-04   -0.93589E-03  6347   0.184E-01    0.318E-01
RMM:   4    -0.116268064945E+04    0.52430E-03   -0.33095E-03  7588   0.606E-02    0.175E-01
RMM:   5    -0.116268058013E+04    0.69325E-04   -0.85947E-04  6299   0.277E-02    0.540E-02
RMM:   6    -0.116268059187E+04   -0.11744E-04   -0.12133E-04  4042   0.143E-02    0.336E-02
RMM:   7    -0.116268061475E+04   -0.22884E-04   -0.83051E-05  3793   0.109E-02    0.198E-02
RMM:   8    -0.116268063348E+04   -0.18726E-04   -0.49011E-05  3634   0.884E-03
   9 F= -.11626806E+04 E0= -.11626806E+04  d E =-.699899E-01  mag=     5.9999
       N       E                     dE             d eps       ncg     rms          rms(c)
DAV:   1    -0.116266091163E+04    0.19703E-01   -0.26874E+01  6368   0.598E+00    0.144E+00
RMM:   2    -0.116272684791E+04   -0.65936E-01   -0.68633E-01  6243   0.103E+00    0.103E+00
RMM:   3    -0.116272766292E+04   -0.81501E-03   -0.35012E-02  6491   0.351E-01    0.630E-01
RMM:   4    -0.116272587319E+04    0.17897E-02   -0.10241E-02  7894   0.110E-01    0.347E-01
RMM:   5    -0.116272558920E+04    0.28400E-03   -0.29282E-03  7435   0.493E-02    0.899E-02
RMM:   6    -0.116272561125E+04   -0.22048E-04   -0.42430E-04  5422   0.231E-02    0.481E-02
RMM:   7    -0.116272563986E+04   -0.28614E-04   -0.26413E-04  4541   0.144E-02    0.287E-02
RMM:   8    -0.116272566021E+04   -0.20344E-04   -0.14911E-04  4061   0.129E-02
  10 F= -.11627257E+04 E0= -.11627256E+04  d E =-.450267E-01  mag=     5.9999
       N       E                     dE             d eps       ncg     rms          rms(c)
DAV:   1    -0.116271435706E+04    0.11283E-01   -0.72168E+00  6432   0.310E+00    0.745E-01
RMM:   2    -0.116273211443E+04   -0.17757E-01   -0.18452E-01  6243   0.533E-01    0.534E-01
RMM:   3    -0.116273226676E+04   -0.15233E-03   -0.93440E-03  6454   0.179E-01    0.323E-01
RMM:   4    -0.116273179111E+04    0.47564E-03   -0.27896E-03  7727   0.569E-02    0.175E-01
RMM:   5    -0.116273172386E+04    0.67255E-04   -0.88494E-04  6432   0.268E-02    0.424E-02
RMM:   6    -0.116273172569E+04   -0.18269E-05   -0.11843E-04  3992   0.140E-02    0.247E-02
RMM:   7    -0.116273173502E+04   -0.93371E-05   -0.78605E-05  3736   0.101E-02    0.146E-02
RMM:   8    -0.116273174155E+04   -0.65256E-05   -0.48028E-05  3601   0.888E-03
  11 F= -.11627317E+04 E0= -.11627317E+04  d E =-.511081E-01  mag=     5.9998
       N       E                     dE             d eps       ncg     rms          rms(c)
DAV:   1    -0.116272321437E+04    0.85207E-02   -0.14184E+01  6352   0.432E+00    0.107E+00
RMM:   2    -0.116275757988E+04   -0.34366E-01   -0.35903E-01  6241   0.744E-01    0.792E-01
RMM:   3    -0.116275784425E+04   -0.26436E-03   -0.17717E-02  6467   0.248E-01    0.482E-01
RMM:   4    -0.116275684571E+04    0.99853E-03   -0.60856E-03  7659   0.847E-02    0.268E-01
RMM:   5    -0.116275669811E+04    0.14760E-03   -0.13996E-03  7197   0.354E-02    0.884E-02
RMM:   6    -0.116275671258E+04   -0.14476E-04   -0.22370E-04  4647   0.165E-02    0.405E-02
RMM:   7    -0.116275672272E+04   -0.10135E-04   -0.12865E-04  3968   0.126E-02    0.310E-02
RMM:   8    -0.116275672990E+04   -0.71847E-05   -0.79299E-05  3723   0.104E-02
  12 F= -.11627567E+04 E0= -.11627567E+04  d E =-.249884E-01  mag=     5.9998
       N       E                     dE             d eps       ncg     rms          rms(c)
DAV:   1    -0.116275364943E+04    0.30733E-02   -0.23686E+00  6520   0.177E+00    0.434E-01
RMM:   2    -0.116275942287E+04   -0.57734E-02   -0.60372E-02  6250   0.304E-01    0.324E-01
RMM:   3    -0.116275944868E+04   -0.25808E-04   -0.30170E-03  6402   0.100E-01    0.197E-01
RMM:   4    -0.116275927593E+04    0.17275E-03   -0.99928E-04  6391   0.350E-02    0.103E-01
RMM:   5    -0.116275925495E+04    0.20973E-04   -0.24099E-04  4623   0.191E-02    0.325E-02
RMM:   6    -0.116275925924E+04   -0.42870E-05   -0.53766E-05  3626   0.117E-02    0.160E-02
RMM:   7    -0.116275926301E+04   -0.37737E-05   -0.41898E-05  3533   0.873E-03    0.162E-02
RMM:   8    -0.116275926529E+04   -0.22779E-05   -0.25805E-05  3431   0.735E-03
  13 F= -.11627593E+04 E0= -.11627592E+04  d E =-.275237E-01  mag=     5.9998
       N       E                     dE             d eps       ncg     rms          rms(c)
DAV:   1    -0.116275344140E+04    0.58216E-02   -0.11039E+01  6368   0.384E+00    0.848E-01
RMM:   2    -0.116277859069E+04   -0.25149E-01   -0.27411E-01  6227   0.647E-01    0.615E-01
RMM:   3    -0.116277846446E+04    0.12623E-03   -0.13535E-02  6354   0.220E-01    0.390E-01
RMM:   4    -0.116277784124E+04    0.62322E-03   -0.45551E-03  7857   0.723E-02    0.206E-01
RMM:   5    -0.116277779793E+04    0.43308E-04   -0.10063E-03  7144   0.295E-02    0.666E-02
RMM:   6    -0.116277781017E+04   -0.12235E-04   -0.18725E-04  4313   0.152E-02    0.269E-02
RMM:   7    -0.116277781901E+04   -0.88406E-05   -0.11123E-04  3849   0.123E-02    0.222E-02
RMM:   8    -0.116277782546E+04   -0.64537E-05   -0.71645E-05  3670   0.980E-03
  14 F= -.11627778E+04 E0= -.11627778E+04  d E =-.185602E-01  mag=     5.9999
       N       E                     dE             d eps       ncg     rms          rms(c)
DAV:   1    -0.116276886979E+04    0.89492E-02   -0.60129E+00  6424   0.284E+00    0.627E-01
RMM:   2    -0.116278262155E+04   -0.13752E-01   -0.14995E-01  6235   0.477E-01    0.455E-01
RMM:   3    -0.116278252063E+04    0.10092E-03   -0.73644E-03  6359   0.161E-01    0.289E-01
RMM:   4    -0.116278217824E+04    0.34239E-03   -0.25359E-03  7681   0.538E-02    0.149E-01
RMM:   5    -0.116278216047E+04    0.17773E-04   -0.56904E-04  6014   0.228E-02    0.478E-02
RMM:   6    -0.116278216602E+04   -0.55481E-05   -0.98576E-05  3840   0.130E-02    0.191E-02
RMM:   7    -0.116278217311E+04   -0.70880E-05   -0.83529E-05  3725   0.110E-02    0.160E-02
RMM:   8    -0.116278217702E+04   -0.39135E-05   -0.44613E-05  3554   0.840E-03
  15 F= -.11627822E+04 E0= -.11627822E+04  d E =-.229117E-01  mag=     6.0000
       N       E                     dE             d eps       ncg     rms          rms(c)
DAV:   1    -0.116276588220E+04    0.16291E-01   -0.14003E+01  6368   0.434E+00    0.855E-01
RMM:   2    -0.116279642335E+04   -0.30541E-01   -0.35153E-01  6162   0.731E-01    0.654E-01
RMM:   3    -0.116279573935E+04    0.68400E-03   -0.16934E-02  6311   0.243E-01    0.422E-01
RMM:   4    -0.116279504452E+04    0.69483E-03   -0.61266E-03  7809   0.805E-02    0.229E-01
RMM:   5    -0.116279477992E+04    0.26460E-03   -0.16208E-03  7396   0.369E-02    0.547E-02
RMM:   6    -0.116279479394E+04   -0.14019E-04   -0.25742E-04  4843   0.175E-02    0.393E-02
RMM:   7    -0.116279481334E+04   -0.19403E-04   -0.15570E-04  4083   0.130E-02    0.232E-02
RMM:   8    -0.116279482784E+04   -0.14501E-04   -0.91858E-05  3792   0.105E-02
  16 F= -.11627948E+04 E0= -.11627948E+04  d E =-.126508E-01  mag=     6.0000
       N       E                     dE             d eps       ncg     rms          rms(c)
DAV:   1    -0.116279449705E+04    0.31629E-03   -0.25586E-01  6864   0.587E-01    0.115E-01
RMM:   2    -0.116279508671E+04   -0.58966E-03   -0.67113E-03  6276   0.999E-02    0.896E-02
RMM:   3    -0.116279506329E+04    0.23426E-04   -0.30440E-04  4373   0.321E-02    0.588E-02
RMM:   4    -0.116279505522E+04    0.80665E-05   -0.12006E-04  3662   0.129E-02    0.326E-02
RMM:   5    -0.116279505677E+04   -0.15481E-05   -0.41478E-05  3533   0.907E-03    0.112E-02
RMM:   6    -0.116279506029E+04   -0.35268E-05   -0.19966E-05  3419   0.622E-03    0.909E-03
RMM:   7    -0.116279506299E+04   -0.26937E-05   -0.12761E-05  3212   0.502E-03    0.714E-03
RMM:   8    -0.116279506645E+04   -0.34584E-05   -0.10027E-05  2984   0.431E-03
  17 F= -.11627951E+04 E0= -.11627951E+04  d E =-.128894E-01  mag=     6.0000
       N       E                     dE             d eps       ncg     rms          rms(c)
DAV:   1    -0.116278525251E+04    0.98105E-02   -0.89112E+00  6376   0.345E+00    0.649E-01
RMM:   2    -0.116280400748E+04   -0.18755E-01   -0.22231E-01  6148   0.580E-01    0.487E-01
RMM:   3    -0.116280345199E+04    0.55549E-03   -0.10162E-02  6210   0.183E-01    0.326E-01
RMM:   4    -0.116280284530E+04    0.60669E-03   -0.37661E-03  7468   0.645E-02    0.186E-01
RMM:   5    -0.116280272456E+04    0.12074E-03   -0.86358E-04  6503   0.295E-02    0.550E-02
RMM:   6    -0.116280274030E+04   -0.15743E-04   -0.15232E-04  4115   0.144E-02    0.340E-02
RMM:   7    -0.116280275512E+04   -0.14814E-04   -0.80245E-05  3714   0.121E-02    0.257E-02
RMM:   8    -0.116280277223E+04   -0.17119E-04   -0.58422E-05  3646   0.961E-03
  18 F= -.11628028E+04 E0= -.11628028E+04  d E =-.770579E-02  mag=     5.9999
       N       E                     dE             d eps       ncg     rms          rms(c)
DAV:   1    -0.116280278241E+04   -0.27300E-04   -0.57884E-03  6848   0.888E-02    0.187E-02
RMM:   2    -0.116280280188E+04   -0.19465E-04   -0.16193E-04  3656   0.165E-02    0.186E-02
RMM:   3    -0.116280280683E+04   -0.49466E-05   -0.23725E-05  3321   0.809E-03    0.130E-02
RMM:   4    -0.116280281193E+04   -0.51054E-05   -0.14253E-05  3170   0.476E-03    0.140E-02
RMM:   5    -0.116280281935E+04   -0.74172E-05   -0.99688E-06  2718   0.455E-03    0.909E-03
RMM:   6    -0.116280282669E+04   -0.73424E-05   -0.90756E-06  2658   0.382E-03    0.908E-03
RMM:   7    -0.116280283141E+04   -0.47137E-05   -0.53325E-06  2089   0.322E-03    0.741E-03
RMM:   8    -0.116280283910E+04   -0.76967E-05   -0.71746E-06  2202   0.361E-03
  19 F= -.11628028E+04 E0= -.11628028E+04  d E =-.777266E-02  mag=     5.9999
       N       E                     dE             d eps       ncg     rms          rms(c)
DAV:   1    -0.116279807653E+04    0.47549E-02   -0.49836E+00  6376   0.259E+00    0.502E-01
RMM:   2    -0.116280908981E+04   -0.11013E-01   -0.12352E-01  6150   0.433E-01    0.364E-01
RMM:   3    -0.116280886884E+04    0.22097E-03   -0.56813E-03  6128   0.140E-01    0.235E-01
RMM:   4    -0.116280859088E+04    0.27797E-03   -0.19274E-03  7191   0.465E-02    0.124E-01
RMM:   5    -0.116280856171E+04    0.29165E-04   -0.50571E-04  5619   0.229E-02    0.328E-02
RMM:   6    -0.116280857279E+04   -0.11073E-04   -0.71487E-05  3672   0.124E-02    0.213E-02
RMM:   7    -0.116280858933E+04   -0.16547E-04   -0.57626E-05  3630   0.943E-03    0.151E-02
RMM:   8    -0.116280860696E+04   -0.17626E-04   -0.38568E-05  3520   0.839E-03
  20 F= -.11628086E+04 E0= -.11628086E+04  d E =-.576786E-02  mag=     6.0000
       N       E                     dE             d eps       ncg     rms          rms(c)
DAV:   1    -0.116280757573E+04    0.10136E-02   -0.75998E-01  6400   0.101E+00    0.196E-01
RMM:   2    -0.116280928618E+04   -0.17105E-02   -0.19047E-02  6205   0.170E-01    0.143E-01
RMM:   3    -0.116280925511E+04    0.31076E-04   -0.90787E-04  5847   0.554E-02    0.929E-02
RMM:   4    -0.116280922678E+04    0.28328E-04   -0.29304E-04  4361   0.192E-02    0.495E-02
RMM:   5    -0.116280923765E+04   -0.10876E-04   -0.82730E-05  3638   0.130E-02    0.165E-02
RMM:   6    -0.116280924891E+04   -0.11256E-04   -0.31378E-05  3507   0.832E-03    0.144E-02
RMM:   7    -0.116280925950E+04   -0.10591E-04   -0.20575E-05  3362   0.640E-03    0.121E-02
RMM:   8    -0.116280927664E+04   -0.17133E-04   -0.19987E-05  3336   0.588E-03
  21 F= -.11628093E+04 E0= -.11628093E+04  d E =-.643753E-02  mag=     6.0000
       N       E                     dE             d eps       ncg     rms          rms(c)
DAV:   1    -0.116280454286E+04    0.47166E-02   -0.38085E+00  6336   0.228E+00    0.476E-01
RMM:   2    -0.116281308678E+04   -0.85439E-02   -0.97595E-02  6152   0.388E-01    0.347E-01
RMM:   3    -0.116281289165E+04    0.19513E-03   -0.43999E-03  6166   0.121E-01    0.225E-01
RMM:   4    -0.116281262672E+04    0.26493E-03   -0.17294E-03  6916   0.434E-02    0.118E-01
RMM:   5    -0.116281262014E+04    0.65839E-05   -0.34553E-04  4869   0.214E-02    0.443E-02
RMM:   6    -0.116281263970E+04   -0.19563E-04   -0.75445E-05  3653   0.130E-02    0.257E-02
RMM:   7    -0.116281265956E+04   -0.19860E-04   -0.54349E-05  3607   0.993E-03    0.220E-02
RMM:   8    -0.116281268250E+04   -0.22940E-04   -0.36658E-05  3524   0.834E-03
  22 F= -.11628127E+04 E0= -.11628127E+04  d E =-.340587E-02  mag=     5.9999
       N       E                     dE             d eps       ncg     rms          rms(c)
DAV:   1    -0.116281270554E+04   -0.45982E-04   -0.55870E-05  3888   0.137E-02    0.133E-02
RMM:   2    -0.116281271977E+04   -0.14228E-04   -0.24827E-05  3322   0.801E-03    0.141E-02
RMM:   3    -0.116281272564E+04   -0.58733E-05   -0.11645E-05  2926   0.433E-03    0.125E-02
RMM:   4    -0.116281273602E+04   -0.10381E-04   -0.83375E-06  2653   0.472E-03    0.130E-02
RMM:   5    -0.116281274700E+04   -0.10976E-04   -0.78867E-06  2269   0.335E-03    0.123E-02
RMM:   6    -0.116281276863E+04   -0.21632E-04   -0.12167E-05  2514   0.424E-03    0.124E-02
RMM:   7    -0.116281283698E+04   -0.68344E-04   -0.13050E-04  3357   0.131E-02    0.123E-02
RMM:   8    -0.116281287071E+04   -0.33729E-04   -0.58909E-05  2584   0.674E-03
  23 F= -.11628129E+04 E0= -.11628129E+04  d E =-.359407E-02  mag=     5.9999
       N       E                     dE             d eps       ncg     rms          rms(c)
DAV:   1    -0.116280960380E+04    0.32332E-02   -0.23927E+00  6400   0.181E+00    0.378E-01
RMM:   2    -0.116281500086E+04   -0.53971E-02   -0.62088E-02  6160   0.314E-01    0.297E-01
RMM:   3    -0.116281490471E+04    0.96154E-04   -0.29393E-03  6175   0.102E-01    0.199E-01
RMM:   4    -0.116281474915E+04    0.15556E-03   -0.10306E-03  6311   0.352E-02    0.116E-01
RMM:   5    -0.116281473685E+04    0.12300E-04   -0.25005E-04  4394   0.202E-02    0.372E-02
RMM:   6    -0.116281475680E+04   -0.19956E-04   -0.65053E-05  3623   0.123E-02    0.223E-02
RMM:   7    -0.116281477385E+04   -0.17050E-04   -0.38778E-05  3549   0.900E-03    0.206E-02
RMM:   8    -0.116281479249E+04   -0.18642E-04   -0.26567E-05  3425   0.735E-03
  24 F= -.11628148E+04 E0= -.11628148E+04  d E =-.192179E-02  mag=     6.0000
       N       E                     dE             d eps       ncg     rms          rms(c)
DAV:   1    -0.116281477432E+04   -0.46853E-06   -0.39527E-02  6568   0.233E-01    0.502E-02
RMM:   2    -0.116281487187E+04   -0.97545E-04   -0.10005E-03  6005   0.412E-02    0.394E-02
RMM:   3    -0.116281487835E+04   -0.64834E-05   -0.41268E-05  3426   0.140E-02    0.275E-02
RMM:   4    -0.116281489239E+04   -0.14036E-04   -0.22100E-05  3333   0.633E-03    0.187E-02
RMM:   5    -0.116281490606E+04   -0.13677E-04   -0.11009E-05  2751   0.372E-03    0.138E-02
RMM:   6    -0.116281491424E+04   -0.81742E-05   -0.34757E-06  1816   0.277E-03    0.115E-02
RMM:   7    -0.116281492117E+04   -0.69334E-05   -0.24098E-06  1528   0.239E-03    0.112E-02
RMM:   8    -0.116281494522E+04   -0.24047E-04   -0.17121E-05  2413   0.497E-03
  25 F= -.11628149E+04 E0= -.11628149E+04  d E =-.207451E-02  mag=     6.0000
       N       E                     dE             d eps       ncg     rms          rms(c)
DAV:   1    -0.116281334500E+04    0.15762E-02   -0.12111E+00  6384   0.128E+00    0.296E-01
RMM:   2    -0.116281625608E+04   -0.29111E-02   -0.30617E-02  6199   0.223E-01    0.201E-01
RMM:   3    -0.116281630943E+04   -0.53351E-04   -0.15875E-03  6177   0.761E-02    0.127E-01
RMM:   4    -0.116281625165E+04    0.57779E-04   -0.46151E-04  5031   0.254E-02    0.721E-02
RMM:   5    -0.116281627143E+04   -0.19772E-04   -0.12256E-04  3692   0.169E-02    0.364E-02
RMM:   6    -0.116281629423E+04   -0.22804E-04   -0.47550E-05  3550   0.967E-03    0.201E-02
RMM:   7    -0.116281631656E+04   -0.22334E-04   -0.26377E-05  3487   0.750E-03    0.178E-02
RMM:   8    -0.116281634357E+04   -0.27011E-04   -0.22517E-05  3349   0.616E-03
  26 F= -.11628163E+04 E0= -.11628163E+04  d E =-.139836E-02  mag=     6.0000
       N       E                     dE             d eps       ncg     rms          rms(c)
DAV:   1    -0.116281637407E+04   -0.57506E-04   -0.23604E-03  6728   0.579E-02    0.202E-02
RMM:   2    -0.116281639752E+04   -0.23454E-04   -0.68648E-05  3385   0.116E-02    0.183E-02
RMM:   3    -0.116281640941E+04   -0.11886E-04   -0.11523E-05  3126   0.551E-03    0.161E-02
RMM:   4    -0.116281642317E+04   -0.13756E-04   -0.73929E-06  2276   0.390E-03    0.153E-02
RMM:   5    -0.116281645005E+04   -0.26886E-04   -0.14127E-05  2421   0.442E-03    0.144E-02
RMM:   6    -0.116281647478E+04   -0.24727E-04   -0.14385E-05  2122   0.389E-03    0.136E-02
RMM:   7    -0.116281650082E+04   -0.26043E-04   -0.14900E-05  2305   0.398E-03    0.137E-02
RMM:   8    -0.116281659771E+04   -0.96890E-04   -0.21051E-04  3483   0.167E-02
  27 F= -.11628166E+04 E0= -.11628166E+04  d E =-.165250E-02  mag=     6.0000
       N       E                     dE             d eps       ncg     rms          rms(c)
DAV:   1    -0.116281479987E+04    0.17010E-02   -0.10687E+00  6408   0.119E+00    0.327E-01
RMM:   2    -0.116281781157E+04   -0.30117E-02   -0.26692E-02  6208   0.209E-01    0.207E-01
RMM:   3    -0.116281796656E+04   -0.15499E-03   -0.14037E-03  6175   0.713E-02    0.119E-01
RMM:   4    -0.116281791771E+04    0.48856E-04   -0.37724E-04  4654   0.230E-02    0.571E-02
RMM:   5    -0.116281794557E+04   -0.27864E-04   -0.11406E-04  3673   0.156E-02    0.222E-02
RMM:   6    -0.116281796446E+04   -0.18893E-04   -0.38820E-05  3541   0.947E-03    0.187E-02
RMM:   7    -0.116281798511E+04   -0.20651E-04   -0.25445E-05  3423   0.697E-03    0.173E-02
RMM:   8    -0.116281801537E+04   -0.30253E-04   -0.23354E-05  3352   0.629E-03
  28 F= -.11628180E+04 E0= -.11628180E+04  d E =-.141765E-02  mag=     6.0000
