       N       E                     dE             d eps       ncg     rms          rms(c)
DAV:   1    -0.115725413618E+04   -0.11573E+04   -0.30935E-06  7496   0.327E-03    0.488E-03
RMM:   2    -0.115725413626E+04   -0.81331E-07   -0.11720E-06  3930   0.246E-03    0.627E-03
RMM:   3    -0.115725413627E+04   -0.69558E-08   -0.11284E-07  1707   0.164E-03    0.159E-03
RMM:   4    -0.115725413628E+04   -0.13373E-07   -0.74207E-08  1215   0.165E-03    0.599E-04
RMM:   5    -0.115725413629E+04   -0.75670E-08   -0.33424E-08  1067   0.162E-03    0.549E-04
RMM:   6    -0.115725413630E+04   -0.11307E-07   -0.44832E-08   943   0.163E-03    0.491E-04
RMM:   7    -0.115725413631E+04   -0.10885E-07   -0.41692E-08   923   0.165E-03    0.352E-04
RMM:   8    -0.115725413632E+04   -0.66648E-08   -0.31704E-08   829   0.165E-03
   1 F= -.11572541E+04 E0= -.11572541E+04  d E =-.115725E+04  mag=    14.0000
       N       E                     dE             d eps       ncg     rms          rms(c)
DAV:   1    -0.115725423492E+04   -0.98605E-04   -0.29546E-01 12560   0.627E-01    0.201E-01
RMM:   2    -0.115725483985E+04   -0.60494E-03   -0.96212E-03 12272   0.127E-01    0.210E-01
RMM:   3    -0.115725477945E+04    0.60399E-04   -0.44294E-04 10396   0.391E-02    0.144E-01
RMM:   4    -0.115725470208E+04    0.77373E-04   -0.22415E-04  8492   0.176E-02    0.762E-02
RMM:   5    -0.115725467964E+04    0.22441E-04   -0.80024E-05  7547   0.125E-02    0.368E-02
RMM:   6    -0.115725468082E+04   -0.11788E-05   -0.17394E-05  6883   0.690E-03    0.176E-02
RMM:   7    -0.115725468114E+04   -0.32542E-06   -0.83448E-06  6110   0.387E-03    0.118E-02
RMM:   8    -0.115725468167E+04   -0.52153E-06   -0.42754E-06  5644   0.334E-03
   2 F= -.11572547E+04 E0= -.11572547E+04  d E =-.545347E-03  mag=    14.0000
       N       E                     dE             d eps       ncg     rms          rms(c)
DAV:   1    -0.115725513590E+04   -0.45476E-03   -0.66964E-02 12352   0.297E-01    0.104E-01
RMM:   2    -0.115725522471E+04   -0.88804E-04   -0.24122E-03 12068   0.631E-02    0.116E-01
RMM:   3    -0.115725519609E+04    0.28619E-04   -0.91351E-05  7211   0.190E-02    0.845E-02
RMM:   4    -0.115725516834E+04    0.27750E-04   -0.81561E-05  7132   0.110E-02    0.485E-02
RMM:   5    -0.115725516072E+04    0.76142E-05   -0.30925E-05  6699   0.778E-03    0.306E-02
RMM:   6    -0.115725516096E+04   -0.23218E-06   -0.84838E-06  5887   0.466E-03    0.127E-02
RMM:   7    -0.115725516101E+04   -0.54570E-07   -0.35057E-06  4576   0.299E-03    0.917E-03
RMM:   8    -0.115725516116E+04   -0.14754E-06   -0.18538E-06  4114   0.248E-03
   3 F= -.11572552E+04 E0= -.11572552E+04  d E =-.479491E-03  mag=    14.0000
