       N       E                     dE             d eps       ncg     rms          rms(c)
DAV:   1    -0.115704980467E+04   -0.11570E+04   -0.34780E-05  8424   0.188E-02    0.234E-02
RMM:   2    -0.115704984917E+04   -0.44499E-04   -0.47090E-05  6718   0.106E-02    0.332E-02
RMM:   3    -0.115704986223E+04   -0.13060E-04   -0.18188E-05  6027   0.468E-03    0.190E-02
RMM:   4    -0.115704985454E+04    0.76949E-05   -0.57013E-06  5305   0.424E-03    0.198E-02
RMM:   5    -0.115704984257E+04    0.11970E-04   -0.31949E-06  4367   0.308E-03    0.206E-02
RMM:   6    -0.115704989374E+04   -0.51170E-04   -0.16183E-05  5151   0.595E-03    0.204E-02
RMM:   7    -0.115705002741E+04   -0.13367E-03   -0.17092E-04  6687   0.149E-02    0.365E-02
RMM:   8    -0.115705009993E+04   -0.72525E-04   -0.97854E-05  5633   0.862E-03
   1 F= -.11570501E+04 E0= -.11570501E+04  d E =-.115705E+04  mag=    14.0000
       N       E                     dE             d eps       ncg     rms          rms(c)
DAV:   1    -0.115705099572E+04   -0.96831E-03   -0.12179E+00 12768   0.130E+00    0.444E-01
RMM:   2    -0.115705448328E+04   -0.34876E-02   -0.33916E-02 12382   0.245E-01    0.333E-01
RMM:   3    -0.115705466592E+04   -0.18264E-03   -0.19792E-03 12800   0.835E-02    0.194E-01
RMM:   4    -0.115705457557E+04    0.90351E-04   -0.58548E-04 10788   0.301E-02    0.988E-02
RMM:   5    -0.115705460269E+04   -0.27118E-04   -0.21128E-04  8249   0.217E-02    0.568E-02
RMM:   6    -0.115705462628E+04   -0.23588E-04   -0.61845E-05  7234   0.117E-02    0.325E-02
RMM:   7    -0.115705464915E+04   -0.22868E-04   -0.31438E-05  7031   0.831E-03    0.236E-02
RMM:   8    -0.115705469095E+04   -0.41809E-04   -0.31617E-05  6960   0.778E-03
   2 F= -.11570547E+04 E0= -.11570547E+04  d E =-.459102E-02  mag=    14.0000
       N       E                     dE             d eps       ncg     rms          rms(c)
DAV:   1    -0.115705603811E+04   -0.13890E-02   -0.33014E-01 12816   0.674E-01    0.216E-01
RMM:   2    -0.115705689109E+04   -0.85297E-03   -0.95662E-03 12332   0.130E-01    0.171E-01
RMM:   3    -0.115705692008E+04   -0.28988E-04   -0.52815E-04 10619   0.443E-02    0.106E-01
RMM:   4    -0.115705691613E+04    0.39486E-05   -0.20190E-04  7683   0.181E-02    0.561E-02
RMM:   5    -0.115705695062E+04   -0.34494E-04   -0.77151E-05  7158   0.116E-02    0.298E-02
RMM:   6    -0.115705697124E+04   -0.20617E-04   -0.28307E-05  6918   0.808E-03    0.224E-02
RMM:   7    -0.115705699187E+04   -0.20632E-04   -0.18078E-05  6664   0.545E-03    0.202E-02
RMM:   8    -0.115705702372E+04   -0.31851E-04   -0.17539E-05  6439   0.547E-03
   3 F= -.11570570E+04 E0= -.11570570E+04  d E =-.233277E-02  mag=    14.0000
       N       E                     dE             d eps       ncg     rms          rms(c)
DAV:   1    -0.115705680670E+04    0.18517E-03   -0.10277E+00 12688   0.117E+00    0.390E-01
RMM:   2    -0.115706008894E+04   -0.32822E-02   -0.26353E-02 12897   0.208E-01    0.230E-01
RMM:   3    -0.115706030655E+04   -0.21762E-03   -0.14046E-03 12410   0.686E-02    0.130E-01
RMM:   4    -0.115706030407E+04    0.24782E-05   -0.33160E-04  8655   0.244E-02    0.611E-02
RMM:   5    -0.115706036548E+04   -0.61410E-04   -0.15637E-04  7361   0.164E-02    0.277E-02
RMM:   6    -0.115706039697E+04   -0.31485E-04   -0.52950E-05  7072   0.110E-02    0.255E-02
RMM:   7    -0.115706041952E+04   -0.22550E-04   -0.31682E-05  6903   0.757E-03    0.226E-02
RMM:   8    -0.115706048192E+04   -0.62399E-04   -0.43831E-05  6885   0.894E-03
   4 F= -.11570605E+04 E0= -.11570605E+04  d E =-.345820E-02  mag=    14.0000
       N       E                     dE             d eps       ncg     rms          rms(c)
DAV:   1    -0.115705570514E+04    0.47144E-02   -0.25541E+00 12640   0.185E+00    0.575E-01
RMM:   2    -0.115706356708E+04   -0.78619E-02   -0.65153E-02 12981   0.327E-01    0.338E-01
RMM:   3    -0.115706403338E+04   -0.46630E-03   -0.34739E-03 13277   0.106E-01    0.191E-01
RMM:   4    -0.115706401874E+04    0.14648E-04   -0.84541E-04 12786   0.350E-02    0.913E-02
RMM:   5    -0.115706411468E+04   -0.95947E-04   -0.31875E-04  8293   0.225E-02    0.390E-02
RMM:   6    -0.115706416339E+04   -0.48709E-04   -0.88816E-05  7261   0.130E-02    0.332E-02
RMM:   7    -0.115706419652E+04   -0.33127E-04   -0.47238E-05  7071   0.996E-03    0.295E-02
RMM:   8    -0.115706429879E+04   -0.10227E-03   -0.78712E-05  7112   0.116E-02    0.262E-02
RMM:   9    -0.115706436479E+04   -0.65993E-04   -0.56552E-05  6889   0.812E-03
   5 F= -.11570644E+04 E0= -.11570644E+04  d E =-.388287E-02  mag=    14.0000
       N       E                     dE             d eps       ncg     rms          rms(c)
DAV:   1    -0.115706405918E+04    0.23962E-03   -0.51252E-01 12752   0.829E-01    0.236E-01
RMM:   2    -0.115706556287E+04   -0.15037E-02   -0.13049E-02 12950   0.145E-01    0.143E-01
RMM:   3    -0.115706564907E+04   -0.86204E-04   -0.64985E-04 10214   0.465E-02    0.869E-02
RMM:   4    -0.115706568968E+04   -0.40609E-04   -0.16768E-04  7354   0.174E-02    0.487E-02
RMM:   5    -0.115706577162E+04   -0.81935E-04   -0.10844E-04  7212   0.128E-02    0.295E-02
RMM:   6    -0.115706580879E+04   -0.37172E-04   -0.40017E-05  6941   0.895E-03    0.287E-02
RMM:   7    -0.115706583479E+04   -0.26001E-04   -0.24186E-05  6740   0.651E-03    0.247E-02
RMM:   8    -0.115706591896E+04   -0.84164E-04   -0.51710E-05  6766   0.903E-03
   6 F= -.11570659E+04 E0= -.11570659E+04  d E =-.155417E-02  mag=    14.0000
       N       E                     dE             d eps       ncg     rms          rms(c)
DAV:   1    -0.115706597662E+04   -0.14183E-03   -0.27028E-01 12800   0.594E-01    0.155E-01
RMM:   2    -0.115706674200E+04   -0.76539E-03   -0.67229E-03 12722   0.104E-01    0.973E-02
RMM:   3    -0.115706678895E+04   -0.46946E-04   -0.32464E-04  8485   0.339E-02    0.610E-02
RMM:   4    -0.115706683160E+04   -0.42655E-04   -0.10625E-04  7172   0.137E-02    0.369E-02
RMM:   5    -0.115706689817E+04   -0.66568E-04   -0.67812E-05  7015   0.989E-03    0.258E-02
RMM:   6    -0.115706693191E+04   -0.33734E-04   -0.28285E-05  6770   0.681E-03    0.250E-02
RMM:   7    -0.115706695314E+04   -0.21236E-04   -0.15372E-05  6270   0.530E-03    0.230E-02
RMM:   8    -0.115706701350E+04   -0.60355E-04   -0.31242E-05  6318   0.681E-03
   7 F= -.11570670E+04 E0= -.11570670E+04  d E =-.109454E-02  mag=    14.0000
       N       E                     dE             d eps       ncg     rms          rms(c)
DAV:   1    -0.115706711119E+04   -0.15805E-03   -0.19524E-01 12640   0.499E-01    0.129E-01
RMM:   2    -0.115706768190E+04   -0.57071E-03   -0.47958E-03 12678   0.877E-02    0.791E-02
RMM:   3    -0.115706772358E+04   -0.41675E-04   -0.22151E-04  7880   0.281E-02    0.504E-02
RMM:   4    -0.115706776517E+04   -0.41595E-04   -0.77030E-05  7080   0.117E-02    0.324E-02
RMM:   5    -0.115706782781E+04   -0.62636E-04   -0.55713E-05  6927   0.873E-03    0.255E-02
RMM:   6    -0.115706785682E+04   -0.29006E-04   -0.22935E-05  6439   0.576E-03    0.242E-02
RMM:   7    -0.115706787816E+04   -0.21344E-04   -0.12558E-05  5554   0.486E-03    0.224E-02
RMM:   8    -0.115706792921E+04   -0.51054E-04   -0.24818E-05  5939   0.577E-03
   8 F= -.11570679E+04 E0= -.11570679E+04  d E =-.915716E-03  mag=    14.0000
       N       E                     dE             d eps       ncg     rms          rms(c)
DAV:   1    -0.115706809221E+04   -0.21405E-03   -0.10426E-01 12480   0.361E-01    0.966E-02
RMM:   2    -0.115706841727E+04   -0.32506E-03   -0.25528E-03 12504   0.640E-02    0.603E-02
RMM:   3    -0.115706845089E+04   -0.33612E-04   -0.11529E-04  7199   0.210E-02    0.395E-02
RMM:   4    -0.115706849242E+04   -0.41537E-04   -0.53600E-05  6902   0.938E-03    0.277E-02
RMM:   5    -0.115706854785E+04   -0.55428E-04   -0.41315E-05  6515   0.702E-03    0.242E-02
RMM:   6    -0.115706857430E+04   -0.26453E-04   -0.17683E-05  5624   0.463E-03    0.229E-02
RMM:   7    -0.115706859427E+04   -0.19962E-04   -0.96680E-06  4943   0.422E-03    0.217E-02
RMM:   8    -0.115706864011E+04   -0.45848E-04   -0.21276E-05  5573   0.522E-03
   9 F= -.11570686E+04 E0= -.11570686E+04  d E =-.710901E-03  mag=    14.0000
       N       E                     dE             d eps       ncg     rms          rms(c)
DAV:   1    -0.115706879230E+04   -0.19804E-03   -0.10888E-01 12368   0.367E-01    0.979E-02
RMM:   2    -0.115706913188E+04   -0.33957E-03   -0.26482E-03 12488   0.653E-02    0.602E-02
RMM:   3    -0.115706916659E+04   -0.34715E-04   -0.12207E-04  7251   0.215E-02    0.391E-02
RMM:   4    -0.115706920769E+04   -0.41098E-04   -0.54001E-05  6893   0.950E-03    0.271E-02
RMM:   5    -0.115706926197E+04   -0.54285E-04   -0.40795E-05  6448   0.703E-03    0.241E-02
RMM:   6    -0.115706928592E+04   -0.23947E-04   -0.16339E-05  5527   0.450E-03    0.225E-02
RMM:   7    -0.115706930548E+04   -0.19564E-04   -0.95278E-06  4910   0.424E-03    0.217E-02
RMM:   8    -0.115706934431E+04   -0.38822E-04   -0.16998E-05  5342   0.462E-03
  10 F= -.11570693E+04 E0= -.11570693E+04  d E =-.704192E-03  mag=    14.0000
       N       E                     dE             d eps       ncg     rms          rms(c)
DAV:   1    -0.115706953306E+04   -0.22757E-03   -0.77522E-02 12272   0.311E-01    0.793E-02
RMM:   2    -0.115706977613E+04   -0.24307E-03   -0.18925E-03 12212   0.556E-02    0.504E-02
RMM:   3    -0.115706980599E+04   -0.29866E-04   -0.89049E-05  7046   0.187E-02    0.346E-02
RMM:   4    -0.115706984490E+04   -0.38907E-04   -0.43898E-05  6745   0.850E-03    0.256E-02
RMM:   5    -0.115706989689E+04   -0.51991E-04   -0.36373E-05  6193   0.645E-03    0.241E-02
RMM:   6    -0.115706991911E+04   -0.22219E-04   -0.14275E-05  5130   0.411E-03    0.220E-02
RMM:   7    -0.115706993710E+04   -0.17987E-04   -0.82553E-06  4588   0.396E-03    0.215E-02
RMM:   8    -0.115706995873E+04   -0.21628E-04   -0.80754E-06  4194   0.329E-03
  11 F= -.11570700E+04 E0= -.11570700E+04  d E =-.614420E-03  mag=    14.0000
       N       E                     dE             d eps       ncg     rms          rms(c)
DAV:   1    -0.115707009879E+04   -0.16169E-03   -0.11007E-01 12304   0.371E-01    0.869E-02
RMM:   2    -0.115707041863E+04   -0.31984E-03   -0.27027E-03 12523   0.663E-02    0.563E-02
RMM:   3    -0.115707044759E+04   -0.28960E-04   -0.12094E-04  7211   0.214E-02    0.390E-02
RMM:   4    -0.115707048672E+04   -0.39134E-04   -0.51616E-05  6869   0.941E-03    0.278E-02
RMM:   5    -0.115707054214E+04   -0.55418E-04   -0.41596E-05  6398   0.714E-03    0.232E-02
RMM:   6    -0.115707057011E+04   -0.27965E-04   -0.18522E-05  5424   0.455E-03    0.229E-02
RMM:   7    -0.115707058537E+04   -0.15266E-04   -0.80621E-06  4693   0.391E-03    0.220E-02
RMM:   8    -0.115707061797E+04   -0.32601E-04   -0.12980E-05  4892   0.419E-03
  12 F= -.11570706E+04 E0= -.11570706E+04  d E =-.659248E-03  mag=    14.0000
       N       E                     dE             d eps       ncg     rms          rms(c)
DAV:   1    -0.115707074360E+04   -0.15823E-03   -0.10246E-01 12288   0.357E-01    0.817E-02
RMM:   2    -0.115707103858E+04   -0.29498E-03   -0.25055E-03 12509   0.636E-02    0.535E-02
RMM:   3    -0.115707106700E+04   -0.28419E-04   -0.11255E-04  7164   0.207E-02    0.382E-02
RMM:   4    -0.115707110679E+04   -0.39792E-04   -0.49800E-05  6847   0.914E-03    0.277E-02
RMM:   5    -0.115707116413E+04   -0.57339E-04   -0.42170E-05  6355   0.710E-03    0.235E-02
RMM:   6    -0.115707119259E+04   -0.28457E-04   -0.18767E-05  5357   0.449E-03    0.233E-02
RMM:   7    -0.115707120785E+04   -0.15259E-04   -0.79964E-06  4713   0.389E-03    0.223E-02
RMM:   8    -0.115707123638E+04   -0.28531E-04   -0.10728E-05  4676   0.382E-03
  13 F= -.11570712E+04 E0= -.11570712E+04  d E =-.618405E-03  mag=    14.0000
