       N       E                     dE             d eps       ncg     rms          rms(c)
DAV:   1    -0.116112005023E+04   -0.11611E+04   -0.52031E-05  8424   0.149E-02    0.140E-02
RMM:   2    -0.116112007103E+04   -0.20792E-04   -0.30781E-05  6821   0.925E-03    0.177E-02
RMM:   3    -0.116112007804E+04   -0.70154E-05   -0.16431E-05  6340   0.456E-03    0.122E-02
RMM:   4    -0.116112008089E+04   -0.28466E-05   -0.73380E-06  5862   0.472E-03    0.124E-02
RMM:   5    -0.116112008705E+04   -0.61631E-05   -0.61867E-06  4656   0.296E-03    0.129E-02
RMM:   6    -0.116112008698E+04    0.74375E-07   -0.25770E-06  3830   0.303E-03    0.121E-02
RMM:   7    -0.116112008867E+04   -0.16888E-05   -0.19185E-06  3236   0.240E-03    0.140E-02
RMM:   8    -0.116112008669E+04    0.19773E-05   -0.99996E-07  2676   0.234E-03
   1 F= -.11611201E+04 E0= -.11611201E+04  d E =-.116112E+04  mag=     8.0000
       N       E                     dE             d eps       ncg     rms          rms(c)
DAV:   1    -0.116111648659E+04    0.36021E-02   -0.45263E+00 12656   0.236E+00    0.929E-01
RMM:   2    -0.116113031055E+04   -0.13824E-01   -0.12578E-01 12314   0.464E-01    0.769E-01
RMM:   3    -0.116113095193E+04   -0.64138E-03   -0.72256E-03 12763   0.156E-01    0.431E-01
RMM:   4    -0.116113033793E+04    0.61400E-03   -0.28626E-03 12524   0.614E-02    0.211E-01
RMM:   5    -0.116113019124E+04    0.14669E-03   -0.74120E-04 10744   0.348E-02    0.713E-02
RMM:   6    -0.116113018528E+04    0.59633E-05   -0.76404E-05  7912   0.121E-02    0.331E-02
RMM:   7    -0.116113020321E+04   -0.17933E-04   -0.45310E-05  7341   0.881E-03    0.254E-02
RMM:   8    -0.116113022198E+04   -0.18769E-04   -0.28113E-05  7194   0.782E-03
   2 F= -.11611302E+04 E0= -.11611302E+04  d E =-.101353E-01  mag=     8.0000
       N       E                     dE             d eps       ncg     rms          rms(c)
DAV:   1    -0.116113481973E+04   -0.46165E-02   -0.10170E+00 12704   0.115E+00    0.349E-01
RMM:   2    -0.116113681130E+04   -0.19916E-02   -0.30919E-02 12333   0.230E-01    0.344E-01
RMM:   3    -0.116113673064E+04    0.80663E-04   -0.18144E-03 12769   0.764E-02    0.222E-01
RMM:   4    -0.116113652645E+04    0.20419E-03   -0.81582E-04 10965   0.329E-02    0.125E-01
RMM:   5    -0.116113645912E+04    0.67334E-04   -0.19674E-04  8482   0.213E-02    0.324E-02
RMM:   6    -0.116113646756E+04   -0.84449E-05   -0.52374E-05  7219   0.111E-02    0.275E-02
RMM:   7    -0.116113647376E+04   -0.62020E-05   -0.21164E-05  6930   0.728E-03    0.216E-02
RMM:   8    -0.116113648406E+04   -0.10296E-04   -0.17447E-05  6776   0.599E-03
   3 F= -.11611365E+04 E0= -.11611365E+04  d E =-.626208E-02  mag=     8.0000
       N       E                     dE             d eps       ncg     rms          rms(c)
DAV:   1    -0.116113793135E+04   -0.14576E-02   -0.17490E+00 12680   0.149E+00    0.423E-01
RMM:   2    -0.116114279186E+04   -0.48605E-02   -0.41422E-02 12966   0.257E-01    0.268E-01
RMM:   3    -0.116114298376E+04   -0.19190E-03   -0.21263E-03 12710   0.806E-02    0.151E-01
RMM:   4    -0.116114288377E+04    0.99998E-04   -0.52106E-04 10627   0.284E-02    0.729E-02
RMM:   5    -0.116114288916E+04   -0.53977E-05   -0.15947E-04  7663   0.178E-02    0.236E-02
RMM:   6    -0.116114289581E+04   -0.66480E-05   -0.40352E-05  7114   0.108E-02    0.157E-02
RMM:   7    -0.116114290324E+04   -0.74293E-05   -0.25973E-05  6864   0.692E-03    0.144E-02
RMM:   8    -0.116114291412E+04   -0.10883E-04   -0.18923E-05  6730   0.663E-03
   4 F= -.11611429E+04 E0= -.11611429E+04  d E =-.643007E-02  mag=     8.0000
       N       E                     dE             d eps       ncg     rms          rms(c)
DAV:   1    -0.116114485342E+04   -0.19502E-02   -0.49047E-01 12664   0.797E-01    0.191E-01
RMM:   2    -0.116114607165E+04   -0.12182E-02   -0.12695E-02 12614   0.142E-01    0.163E-01
RMM:   3    -0.116114607796E+04   -0.63144E-05   -0.66669E-04 10508   0.468E-02    0.106E-01
RMM:   4    -0.116114604733E+04    0.30637E-04   -0.18495E-04  7839   0.170E-02    0.605E-02
RMM:   5    -0.116114604656E+04    0.77022E-06   -0.74863E-05  7380   0.121E-02    0.199E-02
RMM:   6    -0.116114605180E+04   -0.52395E-05   -0.21712E-05  6905   0.748E-03    0.135E-02
RMM:   7    -0.116114605609E+04   -0.42979E-05   -0.12946E-05  6460   0.489E-03    0.112E-02
RMM:   8    -0.116114606370E+04   -0.76037E-05   -0.10301E-05  6301   0.475E-03
   5 F= -.11611461E+04 E0= -.11611461E+04  d E =-.314957E-02  mag=     8.0000
       N       E                     dE             d eps       ncg     rms          rms(c)
DAV:   1    -0.116112698576E+04    0.19070E-01   -0.12462E+01 12608   0.399E+00    0.956E-01
RMM:   2    -0.116115950414E+04   -0.32518E-01   -0.28892E-01 13073   0.672E-01    0.539E-01
RMM:   3    -0.116116053148E+04   -0.10273E-02   -0.14435E-02 13517   0.209E-01    0.302E-01
RMM:   4    -0.116116003780E+04    0.49368E-03   -0.31996E-03 15456   0.656E-02    0.150E-01
RMM:   5    -0.116116000287E+04    0.34927E-04   -0.11198E-03 13381   0.320E-02    0.398E-02
RMM:   6    -0.116116001962E+04   -0.16743E-04   -0.11651E-04  7891   0.163E-02    0.256E-02
RMM:   7    -0.116116004336E+04   -0.23747E-04   -0.84704E-05  7573   0.110E-02    0.172E-02
RMM:   8    -0.116116005854E+04   -0.15181E-04   -0.55293E-05  7284   0.966E-03
   6 F= -.11611601E+04 E0= -.11611601E+04  d E =-.139948E-01  mag=     8.0000
       N       E                     dE             d eps       ncg     rms          rms(c)
DAV:   1    -0.116114161170E+04    0.18432E-01   -0.11086E+01 12552   0.377E+00    0.871E-01
RMM:   2    -0.116117019159E+04   -0.28580E-01   -0.25968E-01 13096   0.636E-01    0.492E-01
RMM:   3    -0.116117091838E+04   -0.72679E-03   -0.12816E-02 13608   0.196E-01    0.280E-01
RMM:   4    -0.116117048717E+04    0.43121E-03   -0.29117E-03 15531   0.619E-02    0.140E-01
RMM:   5    -0.116117046954E+04    0.17629E-04   -0.10278E-03 13309   0.306E-02    0.380E-02
RMM:   6    -0.116117048924E+04   -0.19706E-04   -0.12033E-04  7995   0.160E-02    0.255E-02
RMM:   7    -0.116117051815E+04   -0.28908E-04   -0.87104E-05  7647   0.111E-02    0.172E-02
RMM:   8    -0.116117053885E+04   -0.20696E-04   -0.60615E-05  7391   0.973E-03
   7 F= -.11611705E+04 E0= -.11611705E+04  d E =-.104803E-01  mag=     8.0000
       N       E                     dE             d eps       ncg     rms          rms(c)
DAV:   1    -0.116116097129E+04    0.95469E-02   -0.61822E+00 12544   0.282E+00    0.629E-01
RMM:   2    -0.116117666175E+04   -0.15690E-01   -0.14484E-01 13076   0.473E-01    0.357E-01
RMM:   3    -0.116117700771E+04   -0.34596E-03   -0.70925E-03 13455   0.147E-01    0.206E-01
RMM:   4    -0.116117678035E+04    0.22736E-03   -0.16034E-03 14228   0.465E-02    0.105E-01
RMM:   5    -0.116117678483E+04   -0.44777E-05   -0.58582E-04 11342   0.251E-02    0.297E-02
RMM:   6    -0.116117680175E+04   -0.16925E-04   -0.67371E-05  7446   0.141E-02    0.204E-02
RMM:   7    -0.116117683142E+04   -0.29672E-04   -0.81658E-05  7413   0.103E-02    0.145E-02
RMM:   8    -0.116117684950E+04   -0.18074E-04   -0.44855E-05  7076   0.875E-03
   8 F= -.11611768E+04 E0= -.11611768E+04  d E =-.631065E-02  mag=     8.0000
       N       E                     dE             d eps       ncg     rms          rms(c)
DAV:   1    -0.116116766888E+04    0.91625E-02   -0.54923E+00 12544   0.266E+00    0.573E-01
RMM:   2    -0.116118136902E+04   -0.13700E-01   -0.12881E-01 13071   0.446E-01    0.328E-01
RMM:   3    -0.116118160309E+04   -0.23407E-03   -0.61667E-03 13361   0.138E-01    0.192E-01
RMM:   4    -0.116118139519E+04    0.20790E-03   -0.14079E-03 13896   0.437E-02    0.980E-02
RMM:   5    -0.116118140104E+04   -0.58473E-05   -0.50120E-04 10737   0.239E-02    0.278E-02
RMM:   6    -0.116118141744E+04   -0.16397E-04   -0.60979E-05  7344   0.137E-02    0.193E-02
RMM:   7    -0.116118144634E+04   -0.28901E-04   -0.76974E-05  7319   0.101E-02    0.137E-02
RMM:   8    -0.116118146428E+04   -0.17939E-04   -0.41150E-05  7000   0.841E-03
   9 F= -.11611815E+04 E0= -.11611815E+04  d E =-.461478E-02  mag=     8.0000
       N       E                     dE             d eps       ncg     rms          rms(c)
DAV:   1    -0.116117511172E+04    0.63346E-02   -0.38471E+00 12672   0.223E+00    0.465E-01
RMM:   2    -0.116118462945E+04   -0.95177E-02   -0.90836E-02 13061   0.375E-01    0.268E-01
RMM:   3    -0.116118475900E+04   -0.12955E-03   -0.43200E-03 13208   0.115E-01    0.159E-01
RMM:   4    -0.116118461178E+04    0.14722E-03   -0.96379E-04 12817   0.368E-02    0.814E-02
RMM:   5    -0.116118462148E+04   -0.96969E-05   -0.34537E-04  9434   0.214E-02    0.241E-02
RMM:   6    -0.116118463574E+04   -0.14262E-04   -0.51462E-05  7222   0.129E-02    0.169E-02
RMM:   7    -0.116118465834E+04   -0.22600E-04   -0.62084E-05  7166   0.955E-03    0.129E-02
RMM:   8    -0.116118467379E+04   -0.15454E-04   -0.34486E-05  6894   0.782E-03
  10 F= -.11611847E+04 E0= -.11611847E+04  d E =-.320952E-02  mag=     8.0000
