       N       E                     dE             d eps       ncg     rms          rms(c)
DAV:   1     0.120099969033E+05    0.12010E+05   -0.42361E+05 12344   0.132E+03
DAV:   2     0.680970676704E+03   -0.11329E+05   -0.10115E+05 12320   0.377E+02
DAV:   3    -0.135525191806E+04   -0.20362E+04   -0.19616E+04 13240   0.167E+02
DAV:   4    -0.149246325117E+04   -0.13721E+03   -0.13466E+03 16216   0.458E+01
DAV:   5    -0.150157006000E+04   -0.91068E+01   -0.90559E+01 22168   0.108E+01    0.182E+02
RMM:   6    -0.116406694988E+04    0.33750E+03   -0.16278E+03 12506   0.356E+01    0.119E+02
RMM:   7    -0.114755371374E+04    0.16513E+02   -0.65552E+01 12811   0.120E+01    0.765E+01
RMM:   8    -0.115391566266E+04   -0.63619E+01   -0.29363E+01 14148   0.579E+00    0.512E+01
RMM:   9    -0.118535050978E+04   -0.31435E+02   -0.14258E+02 14950   0.103E+01    0.800E+01
RMM:  10    -0.115662821937E+04    0.28722E+02   -0.24897E+01 12591   0.761E+00    0.322E+01
RMM:  11    -0.115240897235E+04    0.42192E+01   -0.82216E+00 13323   0.250E+00    0.493E+01
RMM:  12    -0.115148247126E+04    0.92650E+00   -0.26999E+00 13798   0.167E+00    0.260E+01
RMM:  13    -0.115427011479E+04   -0.27876E+01   -0.15081E+00 12821   0.135E+00    0.194E+01
RMM:  14    -0.115692260848E+04   -0.26525E+01   -0.19243E+00 13255   0.151E+00    0.128E+01
RMM:  15    -0.115802837872E+04   -0.11058E+01   -0.10507E+00 13960   0.104E+00    0.104E+01
RMM:  16    -0.115843045699E+04   -0.40208E+00   -0.66475E-01 13102   0.888E-01    0.997E+00
RMM:  17    -0.115841019722E+04    0.20260E-01   -0.22219E-01 14223   0.528E-01    0.873E+00
RMM:  18    -0.115824951247E+04    0.16068E+00   -0.13717E-01 14081   0.352E-01    0.772E+00
RMM:  19    -0.115802316398E+04    0.22635E+00   -0.86504E-02 14354   0.292E-01    0.683E+00
RMM:  20    -0.115797332282E+04    0.49841E-01   -0.17886E-02 15712   0.983E-02    0.663E+00
RMM:  21    -0.115798633755E+04   -0.13015E-01   -0.11706E-03 12482   0.315E-02    0.669E+00
RMM:  22    -0.115766059349E+04    0.32574E+00   -0.11076E-01 13101   0.323E-01    0.527E+00
RMM:  23    -0.115752172872E+04    0.13886E+00   -0.68684E-02 13718   0.242E-01    0.408E+00
RMM:  24    -0.115752030340E+04    0.14253E-02   -0.82128E-03 14572   0.728E-02    0.409E+00
RMM:  25    -0.115754546551E+04   -0.25162E-01   -0.25013E-03 11364   0.547E-02    0.438E+00
RMM:  26    -0.115755154968E+04   -0.60842E-02   -0.23585E-03 11216   0.547E-02    0.443E+00
RMM:  27    -0.115747610354E+04    0.75446E-01   -0.20849E-02 12349   0.146E-01    0.391E+00
RMM:  28    -0.115747822475E+04   -0.21212E-02   -0.19024E-03 11946   0.373E-02    0.392E+00
RMM:  29    -0.115747657563E+04    0.16491E-02   -0.20518E-04  8334   0.150E-02    0.391E+00
RMM:  30    -0.115747063147E+04    0.59442E-02   -0.28912E-04  8498   0.159E-02    0.388E+00
RMM:  31    -0.115745994028E+04    0.10691E-01   -0.72461E-04  9730   0.242E-02    0.385E+00
RMM:  32    -0.115745472250E+04    0.52178E-02   -0.73848E-04  9275   0.262E-02    0.385E+00
RMM:  33    -0.115747040831E+04   -0.15686E-01   -0.15671E-02 12009   0.136E-01    0.342E+00
RMM:  34    -0.115750722413E+04   -0.36816E-01   -0.69241E-03 10986   0.804E-02    0.340E+00
RMM:  35    -0.115750984824E+04   -0.26241E-02   -0.15900E-03 10479   0.418E-02    0.345E+00
RMM:  36    -0.115748635650E+04    0.23492E-01   -0.13431E-03 10521   0.425E-02    0.330E+00
RMM:  37    -0.115745543263E+04    0.30924E-01   -0.73871E-03 11887   0.848E-02    0.375E+00
RMM:  38    -0.115738482456E+04    0.70608E-01   -0.22317E-02 12743   0.151E-01    0.376E+00
RMM:  39    -0.115738605371E+04   -0.12292E-02   -0.26904E-03 11869   0.575E-02    0.368E+00
RMM:  40    -0.115738334456E+04    0.27092E-02   -0.10675E-03 10282   0.393E-02
   1 F= -.11573833E+04 E0= -.11573741E+04  d E =-.115738E+04  mag=     8.1286
       N       E                     dE             d eps       ncg     rms          rms(c)
DAV:   1    -0.114817295737E+04    0.92131E+01   -0.12089E+03 12416   0.357E+01    0.190E+01
RMM:   2    -0.115731058664E+04   -0.91376E+01   -0.10076E+02 12327   0.917E+00    0.206E+01
RMM:   3    -0.115645999928E+04    0.85059E+00   -0.87210E+00 12524   0.429E+00    0.168E+01
RMM:   4    -0.115600208195E+04    0.45792E+00   -0.18274E+00 14189   0.158E+00    0.925E+00
RMM:   5    -0.115612247667E+04   -0.12039E+00   -0.11335E+00 13175   0.103E+00    0.843E+00
RMM:   6    -0.115657821935E+04   -0.45574E+00   -0.86042E-01 13001   0.106E+00    0.942E+00
RMM:   7    -0.115647456211E+04    0.10366E+00   -0.38148E-01 13063   0.677E-01    0.477E+00
RMM:   8    -0.115650739807E+04   -0.32836E-01   -0.93532E-02 14193   0.337E-01    0.303E+00
RMM:   9    -0.115651502976E+04   -0.76317E-02   -0.81072E-02 13365   0.303E-01    0.220E+00
RMM:  10    -0.115652760530E+04   -0.12576E-01   -0.59631E-02 13715   0.223E-01    0.162E+00
RMM:  11    -0.115654194011E+04   -0.14335E-01   -0.51904E-02 12966   0.219E-01    0.124E+00
RMM:  12    -0.115654595456E+04   -0.40144E-02   -0.41587E-02 13071   0.204E-01    0.812E-01
RMM:  13    -0.115655011638E+04   -0.41618E-02   -0.10698E-02 13716   0.988E-02    0.498E-01
RMM:  14    -0.115655138277E+04   -0.12664E-02   -0.32140E-03 12183   0.590E-02    0.297E-01
RMM:  15    -0.115655233648E+04   -0.95372E-03   -0.14353E-03 11700   0.392E-02    0.220E-01
RMM:  16    -0.115655364759E+04   -0.13111E-02   -0.11752E-03 10740   0.404E-02    0.161E-01
RMM:  17    -0.115655586706E+04   -0.22195E-02   -0.29212E-03 10902   0.661E-02    0.102E-01
RMM:  18    -0.115655697001E+04   -0.11029E-02   -0.14976E-03 10384   0.394E-02    0.890E-02
RMM:  19    -0.115655765985E+04   -0.68985E-03   -0.60559E-04  9129   0.253E-02    0.840E-02
RMM:  20    -0.115655886151E+04   -0.12017E-02   -0.11711E-03  9457   0.386E-02    0.708E-02
RMM:  21    -0.115656029448E+04   -0.14330E-02   -0.23893E-03 10059   0.553E-02    0.598E-02
RMM:  22    -0.115656133691E+04   -0.10424E-02   -0.21933E-03  9776   0.492E-02    0.548E-02
RMM:  23    -0.115656200040E+04   -0.66348E-03   -0.13288E-03  9163   0.352E-02    0.494E-02
RMM:  24    -0.115656273269E+04   -0.73230E-03   -0.19025E-03  9589   0.473E-02    0.436E-02
RMM:  25    -0.115656326237E+04   -0.52968E-03   -0.20278E-03  9514   0.472E-02    0.331E-02
RMM:  26    -0.115656356676E+04   -0.30439E-03   -0.13354E-03  9023   0.357E-02    0.271E-02
RMM:  27    -0.115656372855E+04   -0.16179E-03   -0.81173E-04  8519   0.278E-02    0.216E-02
RMM:  28    -0.115656381448E+04   -0.85931E-04   -0.44248E-04  8021   0.197E-02
   2 F= -.11565638E+04 E0= -.11565602E+04  d E =0.819530E+00  mag=     8.0018
       N       E                     dE             d eps       ncg     rms          rms(c)
DAV:   1    -0.115887030308E+04   -0.23066E+01   -0.21970E+02 12640   0.146E+01    0.844E+00
RMM:   2    -0.115924327867E+04   -0.37298E+00   -0.76673E+00 12296   0.329E+00    0.698E+00
RMM:   3    -0.115914319460E+04    0.10008E+00   -0.49584E-01 12785   0.108E+00    0.421E+00
RMM:   4    -0.115910322599E+04    0.39969E-01   -0.40369E-01 13060   0.649E-01    0.255E+00
RMM:   5    -0.115908367520E+04    0.19551E-01   -0.83482E-02 13235   0.302E-01    0.170E+00
RMM:   6    -0.115911756012E+04   -0.33885E-01   -0.67940E-02 13520   0.256E-01    0.337E+00
RMM:   7    -0.115908211495E+04    0.35445E-01   -0.10189E-01 12374   0.313E-01    0.230E+00
RMM:   8    -0.115907663351E+04    0.54814E-02   -0.98879E-03 13253   0.978E-02    0.220E+00
RMM:   9    -0.115907457932E+04    0.20542E-02   -0.51462E-02 12861   0.218E-01    0.272E+00
RMM:  10    -0.115907377820E+04    0.80112E-03   -0.40536E-03 12894   0.804E-02    0.240E+00
RMM:  11    -0.115909828101E+04   -0.24503E-01   -0.12988E-02 12670   0.109E-01    0.440E+00
RMM:  12    -0.115918744662E+04   -0.89166E-01   -0.17247E-02 12899   0.132E-01    0.782E+00
RMM:  13    -0.115917975175E+04    0.76949E-02   -0.56407E-03 11912   0.120E-01    0.751E+00
RMM:  14    -0.115915202157E+04    0.27730E-01   -0.34080E-03 11247   0.914E-02    0.727E+00
RMM:  15    -0.115915012285E+04    0.18987E-02   -0.89394E-04 10142   0.528E-02    0.717E+00
RMM:  16    -0.115916610655E+04   -0.15984E-01   -0.52024E-03 11184   0.987E-02    0.772E+00
RMM:  17    -0.115914774272E+04    0.18364E-01   -0.26608E-03 10990   0.829E-02    0.747E+00
RMM:  18    -0.115913603927E+04    0.11703E-01   -0.72571E-04  9797   0.452E-02    0.695E+00
RMM:  19    -0.115917547672E+04   -0.39437E-01   -0.38014E-03 11160   0.844E-02    0.781E+00
RMM:  20    -0.115913237551E+04    0.43101E-01   -0.41170E-03 11911   0.756E-02    0.674E+00
RMM:  21    -0.115906647160E+04    0.65904E-01   -0.32318E-02 12855   0.185E-01    0.361E+00
RMM:  22    -0.115904727196E+04    0.19200E-01   -0.17063E-02 13100   0.139E-01    0.169E+00
RMM:  23    -0.115904432236E+04    0.29496E-02   -0.34825E-03 12150   0.708E-02    0.903E-01
RMM:  24    -0.115904423882E+04    0.83535E-04   -0.14726E-03 10995   0.446E-02    0.468E-01
RMM:  25    -0.115904500976E+04   -0.77094E-03   -0.77271E-04  9997   0.391E-02    0.477E-01
RMM:  26    -0.115904538370E+04   -0.37394E-03   -0.77045E-04 10038   0.362E-02    0.676E-01
RMM:  27    -0.115904574440E+04   -0.36069E-03   -0.89923E-05  7619   0.143E-02    0.669E-01
RMM:  28    -0.115904537992E+04    0.36448E-03   -0.35927E-05  7282   0.980E-03    0.667E-01
RMM:  29    -0.115904363220E+04    0.17477E-02   -0.35645E-04  8740   0.248E-02    0.643E-01
RMM:  30    -0.115904282786E+04    0.80434E-03   -0.26278E-04  8312   0.188E-02    0.692E-01
RMM:  31    -0.115904234675E+04    0.48111E-03   -0.83184E-05  7485   0.111E-02    0.643E-01
RMM:  32    -0.115904161578E+04    0.73097E-03   -0.24628E-04  8239   0.210E-02    0.745E-01
RMM:  33    -0.115903993630E+04    0.16795E-02   -0.46118E-04  9223   0.267E-02    0.621E-01
RMM:  34    -0.115903877399E+04    0.11623E-02   -0.80720E-04  9731   0.363E-02    0.899E-01
RMM:  35    -0.115903830946E+04    0.46452E-03   -0.25273E-04  8280   0.215E-02    0.105E+00
RMM:  36    -0.115903851704E+04   -0.20758E-03   -0.36946E-04  8638   0.265E-02    0.125E+00
RMM:  37    -0.115903897936E+04   -0.46232E-03   -0.10476E-04  7490   0.164E-02    0.131E+00
RMM:  38    -0.115903923291E+04   -0.25354E-03   -0.72786E-05  7367   0.124E-02    0.130E+00
RMM:  39    -0.115903903100E+04    0.20191E-03   -0.17207E-05  6417   0.798E-03    0.130E+00
RMM:  40    -0.115903912246E+04   -0.91468E-04   -0.11447E-05  6021   0.504E-03
   3 F= -.11590391E+04 E0= -.11590287E+04  d E =-.247531E+01  mag=     8.0020
       N       E                     dE             d eps       ncg     rms          rms(c)
DAV:   1    -0.115943709062E+04   -0.39806E+00   -0.74990E+01 12704   0.887E+00    0.368E+00
RMM:   2    -0.115973581944E+04   -0.29873E+00   -0.24753E+00 12298   0.183E+00    0.627E+00
RMM:   3    -0.115974443071E+04   -0.86113E-02   -0.14662E-01 13601   0.545E-01    0.631E+00
RMM:   4    -0.115974233137E+04    0.20993E-02   -0.21365E-02 17123   0.146E-01    0.632E+00
RMM:   5    -0.115972627531E+04    0.16056E-01   -0.64882E-02 12903   0.240E-01    0.633E+00
RMM:   6    -0.115972485533E+04    0.14200E-02   -0.19528E-02 12980   0.133E-01    0.654E+00
RMM:   7    -0.115973001589E+04   -0.51606E-02   -0.10714E-02 12552   0.116E-01    0.682E+00
RMM:   8    -0.115985690395E+04   -0.12689E+00   -0.76456E-02 12627   0.323E-01    0.801E+00
RMM:   9    -0.115985951317E+04   -0.26092E-02   -0.93835E-03 12765   0.123E-01    0.827E+00
RMM:  10    -0.115983000421E+04    0.29509E-01   -0.50347E-03 11247   0.831E-02    0.793E+00
RMM:  11    -0.115986796106E+04   -0.37957E-01   -0.94223E-02 12695   0.346E-01    0.849E+00
RMM:  12    -0.115986609436E+04    0.18667E-02   -0.10241E-01 12902   0.351E-01    0.758E+00
RMM:  13    -0.115988336596E+04   -0.17272E-01   -0.16803E-01 12539   0.491E-01    0.629E+00
RMM:  14    -0.115986356437E+04    0.19802E-01   -0.18504E-01 12324   0.528E-01    0.623E+00
RMM:  15    -0.115979882936E+04    0.64735E-01   -0.24163E-01 12662   0.613E-01    0.652E+00
RMM:  16    -0.115984638501E+04   -0.47556E-01   -0.17213E-01 13723   0.431E-01    0.530E+00
RMM:  17    -0.115993141179E+04   -0.85027E-01   -0.11437E-01 13468   0.376E-01    0.427E+00
RMM:  18    -0.115995203796E+04   -0.20626E-01   -0.45120E-02 12638   0.231E-01    0.401E+00
RMM:  19    -0.115994879658E+04    0.32414E-02   -0.54857E-02 12429   0.253E-01    0.388E+00
RMM:  20    -0.115994471448E+04    0.40821E-02   -0.42941E-02 12650   0.210E-01    0.345E+00
RMM:  21    -0.115994014618E+04    0.45683E-02   -0.27091E-02 12819   0.156E-01    0.296E+00
RMM:  22    -0.115992877042E+04    0.11376E-01   -0.46149E-02 12578   0.212E-01    0.232E+00
RMM:  23    -0.115991349520E+04    0.15275E-01   -0.44794E-02 12685   0.204E-01    0.189E+00
RMM:  24    -0.115991416679E+04   -0.67159E-03   -0.72016E-03 12948   0.634E-02    0.186E+00
RMM:  25    -0.115991690332E+04   -0.27365E-02   -0.76018E-04  9217   0.343E-02    0.192E+00
RMM:  26    -0.115991479290E+04    0.21104E-02   -0.51270E-04  9748   0.206E-02    0.187E+00
RMM:  27    -0.115991584606E+04   -0.10532E-02   -0.11290E-03  9679   0.366E-02    0.188E+00
RMM:  28    -0.115991421479E+04    0.16313E-02   -0.76541E-03 11675   0.844E-02    0.178E+00
RMM:  29    -0.115990911667E+04    0.50981E-02   -0.44794E-02 12559   0.207E-01    0.166E+00
RMM:  30    -0.115989476661E+04    0.14350E-01   -0.78317E-02 12254   0.277E-01    0.167E+00
RMM:  31    -0.115988745468E+04    0.73119E-02   -0.28421E-02 11809   0.143E-01    0.176E+00
RMM:  32    -0.115988541783E+04    0.20368E-02   -0.46928E-03 12218   0.534E-02    0.178E+00
RMM:  33    -0.115989249316E+04   -0.70753E-02   -0.30697E-03 10774   0.618E-02    0.164E+00
RMM:  34    -0.115990666974E+04   -0.14177E-01   -0.21417E-02 11866   0.145E-01    0.133E+00
RMM:  35    -0.115991559887E+04   -0.89291E-02   -0.23486E-02 11519   0.137E-01    0.947E-01
RMM:  36    -0.115992110412E+04   -0.55053E-02   -0.32955E-02 12132   0.155E-01    0.445E-01
RMM:  37    -0.115992515954E+04   -0.40554E-02   -0.17555E-02 12181   0.108E-01    0.315E-01
RMM:  38    -0.115992672451E+04   -0.15650E-02   -0.46072E-03 10358   0.552E-02    0.277E-01
RMM:  39    -0.115992746463E+04   -0.74012E-03   -0.13295E-03  9103   0.287E-02    0.290E-01
RMM:  40    -0.115992819961E+04   -0.73498E-03   -0.50340E-04  8317   0.239E-02
   4 F= -.11599282E+04 E0= -.11599282E+04  d E =-.889077E+00  mag=     8.0000
       N       E                     dE             d eps       ncg     rms          rms(c)
DAV:   1    -0.116024298258E+04   -0.31552E+00   -0.16838E+01 12704   0.418E+00    0.196E+00
RMM:   2    -0.116027721754E+04   -0.34235E-01   -0.52776E-01 12730   0.915E-01    0.151E+00
RMM:   3    -0.116027452708E+04    0.26905E-02   -0.33843E-02 13299   0.265E-01    0.930E-01
RMM:   4    -0.116026991458E+04    0.46125E-02   -0.15249E-02 13155   0.130E-01    0.409E-01
RMM:   5    -0.116026993517E+04   -0.20593E-04   -0.44023E-03 12327   0.765E-02    0.199E-01
RMM:   6    -0.116026992340E+04    0.11777E-04   -0.79043E-04 11353   0.275E-02    0.122E-01
RMM:   7    -0.116027025189E+04   -0.32849E-03   -0.44096E-04  9158   0.223E-02    0.697E-02
RMM:   8    -0.116027054349E+04   -0.29160E-03   -0.24597E-04  8120   0.164E-02    0.574E-02
RMM:   9    -0.116027072164E+04   -0.17815E-03   -0.13465E-04  7626   0.113E-02    0.558E-02
RMM:  10    -0.116027093435E+04   -0.21271E-03   -0.12019E-04  7436   0.106E-02    0.543E-02
RMM:  11    -0.116027131958E+04   -0.38522E-03   -0.28661E-04  7526   0.158E-02    0.525E-02
RMM:  12    -0.116027206639E+04   -0.74682E-03   -0.11344E-03  8679   0.312E-02    0.494E-02
RMM:  13    -0.116027312073E+04   -0.10543E-02   -0.29478E-03  9726   0.522E-02    0.448E-02
RMM:  14    -0.116027416439E+04   -0.10437E-02   -0.40690E-03  9961   0.610E-02    0.434E-02
RMM:  15    -0.116027433399E+04   -0.16960E-03   -0.62841E-04  8079   0.171E-02    0.446E-02
RMM:  16    -0.116027408434E+04    0.24965E-03   -0.14612E-04  6979   0.156E-02    0.461E-02
RMM:  17    -0.116027312478E+04    0.95956E-03   -0.18082E-03  9196   0.429E-02    0.602E-02
RMM:  18    -0.116027168178E+04    0.14430E-02   -0.40396E-03  9897   0.627E-02    0.744E-02
RMM:  19    -0.116027424175E+04   -0.25600E-02   -0.12360E-02 10594   0.122E-01    0.485E-02
RMM:  20    -0.116027557735E+04   -0.13356E-02   -0.16612E-02 10846   0.131E-01    0.774E-02
RMM:  21    -0.116027590132E+04   -0.32397E-03   -0.13260E-02 10661   0.108E-01    0.129E-01
RMM:  22    -0.116027614018E+04   -0.23886E-03   -0.14124E-03  9170   0.435E-02    0.105E-01
RMM:  23    -0.116027635939E+04   -0.21922E-03   -0.61154E-04  7677   0.253E-02    0.788E-02
RMM:  24    -0.116027674951E+04   -0.39012E-03   -0.31368E-04  7139   0.203E-02    0.680E-02
RMM:  25    -0.116027714256E+04   -0.39305E-03   -0.10737E-03  8515   0.310E-02    0.629E-02
RMM:  26    -0.116027748991E+04   -0.34736E-03   -0.32279E-04  7033   0.154E-02    0.372E-02
RMM:  27    -0.116027742336E+04    0.66557E-04   -0.48760E-05  6293   0.974E-03
   5 F= -.11602774E+04 E0= -.11602774E+04  d E =-.349224E+00  mag=     8.0000
       N       E                     dE             d eps       ncg     rms          rms(c)
DAV:   1    -0.116043717144E+04   -0.15968E+00   -0.46043E+01 12616   0.711E+00    0.302E+00
RMM:   2    -0.116057152665E+04   -0.13436E+00   -0.13695E+00 12444   0.149E+00    0.252E+00
RMM:   3    -0.116057208334E+04   -0.55669E-03   -0.88078E-02 13174   0.479E-01    0.154E+00
RMM:   4    -0.116056560485E+04    0.64785E-02   -0.31951E-02 13062   0.201E-01    0.693E-01
RMM:   5    -0.116056490601E+04    0.69885E-03   -0.94748E-03 13220   0.115E-01    0.261E-01
RMM:   6    -0.116056445503E+04    0.45098E-03   -0.14110E-03 12735   0.362E-02    0.126E-01
RMM:   7    -0.116056448906E+04   -0.34028E-04   -0.44561E-04 10023   0.216E-02    0.642E-02
RMM:   8    -0.116056455514E+04   -0.66083E-04   -0.13923E-04  8097   0.156E-02
   6 F= -.11605646E+04 E0= -.11605646E+04  d E =-.287132E+00  mag=     8.0000
       N       E                     dE             d eps       ncg     rms          rms(c)
DAV:   1    -0.116059540751E+04   -0.30918E-01   -0.15913E+01 12800   0.443E+00    0.175E+00
RMM:   2    -0.116063838733E+04   -0.42980E-01   -0.45542E-01 12436   0.877E-01    0.135E+00
RMM:   3    -0.116063880602E+04   -0.41870E-03   -0.28952E-02 13033   0.297E-01    0.824E-01
RMM:   4    -0.116063592564E+04    0.28804E-02   -0.13771E-02 13566   0.124E-01    0.372E-01
RMM:   5    -0.116063559842E+04    0.32721E-03   -0.29942E-03 12949   0.632E-02    0.151E-01
RMM:   6    -0.116063557155E+04    0.26872E-04   -0.44587E-04 10492   0.216E-02    0.102E-01
RMM:   7    -0.116063561608E+04   -0.44532E-04   -0.18146E-04  8318   0.165E-02    0.402E-02
RMM:   8    -0.116063564719E+04   -0.31104E-04   -0.77320E-05  7688   0.116E-02
   7 F= -.11606356E+04 E0= -.11606356E+04  d E =-.710920E-01  mag=     8.0000
       N       E                     dE             d eps       ncg     rms          rms(c)
DAV:   1    -0.116063819222E+04   -0.25761E-02   -0.78316E+00 12968   0.318E+00    0.996E-01
RMM:   2    -0.116066141620E+04   -0.23224E-01   -0.19584E-01 12923   0.563E-01    0.614E-01
RMM:   3    -0.116066252085E+04   -0.11046E-02   -0.10255E-02 13342   0.181E-01    0.351E-01
RMM:   4    -0.116066195109E+04    0.56975E-03   -0.32746E-03 14326   0.634E-02    0.151E-01
RMM:   5    -0.116066192849E+04    0.22609E-04   -0.74772E-04 11787   0.299E-02    0.569E-02
RMM:   6    -0.116066193832E+04   -0.98310E-05   -0.10593E-04  7790   0.138E-02    0.307E-02
RMM:   7    -0.116066195357E+04   -0.15249E-04   -0.60811E-05  7388   0.104E-02    0.188E-02
RMM:   8    -0.116066196759E+04   -0.14022E-04   -0.42703E-05  7244   0.845E-03
   8 F= -.11606620E+04 E0= -.11606620E+04  d E =-.263204E-01  mag=     8.0000
       N       E                     dE             d eps       ncg     rms          rms(c)
DAV:   1    -0.116066586754E+04   -0.39140E-02   -0.44415E+00 12784   0.238E+00    0.597E-01
RMM:   2    -0.116067630779E+04   -0.10440E-01   -0.11375E-01 12630   0.428E-01    0.477E-01
RMM:   3    -0.116067635242E+04   -0.44632E-04   -0.62810E-03 13135   0.141E-01    0.294E-01
RMM:   4    -0.116067587108E+04    0.48134E-03   -0.20331E-03 13526   0.498E-02    0.168E-01
RMM:   5    -0.116067576684E+04    0.10424E-03   -0.69493E-04 11320   0.279E-02    0.560E-02
RMM:   6    -0.116067576474E+04    0.20979E-05   -0.84564E-05  7575   0.139E-02    0.292E-02
RMM:   7    -0.116067577010E+04   -0.53649E-05   -0.51120E-05  7295   0.954E-03    0.188E-02
RMM:   8    -0.116067577482E+04   -0.47154E-05   -0.27788E-05  7158   0.810E-03
   9 F= -.11606758E+04 E0= -.11606758E+04  d E =-.138072E-01  mag=     8.0000
       N       E                     dE             d eps       ncg     rms          rms(c)
DAV:   1    -0.116065813490E+04    0.17635E-01   -0.15035E+01 12544   0.440E+00    0.124E+00
RMM:   2    -0.116069874448E+04   -0.40610E-01   -0.36883E-01 12803   0.767E-01    0.814E-01
RMM:   3    -0.116070018361E+04   -0.14391E-02   -0.19775E-02 13252   0.257E-01    0.467E-01
RMM:   4    -0.116069909396E+04    0.10897E-02   -0.59559E-03 15086   0.854E-02    0.214E-01
RMM:   5    -0.116069900628E+04    0.87681E-04   -0.15750E-03 13645   0.400E-02    0.795E-02
RMM:   6    -0.116069900801E+04   -0.17253E-05   -0.20055E-04  8819   0.180E-02    0.469E-02
RMM:   7    -0.116069902595E+04   -0.17940E-04   -0.11854E-04  7812   0.131E-02    0.255E-02
RMM:   8    -0.116069903624E+04   -0.10295E-04   -0.67226E-05  7377   0.108E-02
  10 F= -.11606990E+04 E0= -.11606990E+04  d E =-.232614E-01  mag=     8.0000
       N       E                     dE             d eps       ncg     rms          rms(c)
DAV:   1    -0.116069241537E+04    0.66106E-02   -0.85495E+00 12592   0.333E+00    0.747E-01
RMM:   2    -0.116071372476E+04   -0.21309E-01   -0.20598E-01 12894   0.558E-01    0.448E-01
RMM:   3    -0.116071410204E+04   -0.37728E-03   -0.10231E-02 13231   0.187E-01    0.269E-01
RMM:   4    -0.116071368637E+04    0.41566E-03   -0.26897E-03 15293   0.586E-02    0.129E-01
RMM:   5    -0.116071366833E+04    0.18048E-04   -0.71125E-04 12253   0.263E-02    0.469E-02
RMM:   6    -0.116071367950E+04   -0.11171E-04   -0.10153E-04  7727   0.144E-02    0.234E-02
RMM:   7    -0.116071369311E+04   -0.13611E-04   -0.70733E-05  7481   0.104E-02    0.145E-02
RMM:   8    -0.116071370284E+04   -0.97325E-05   -0.46723E-05  7216   0.889E-03
  11 F= -.11607137E+04 E0= -.11607137E+04  d E =-.146666E-01  mag=     8.0000
       N       E                     dE             d eps       ncg     rms          rms(c)
DAV:   1    -0.116071063567E+04    0.30574E-02   -0.58779E+00 12672   0.276E+00    0.543E-01
RMM:   2    -0.116072428905E+04   -0.13653E-01   -0.14374E-01 12868   0.467E-01    0.398E-01
RMM:   3    -0.116072426940E+04    0.19650E-04   -0.69296E-03 13264   0.152E-01    0.253E-01
RMM:   4    -0.116072395395E+04    0.31546E-03   -0.18718E-03 14466   0.491E-02    0.146E-01
RMM:   5    -0.116072391082E+04    0.43129E-04   -0.63003E-04 11757   0.255E-02    0.399E-02
RMM:   6    -0.116072391762E+04   -0.67992E-05   -0.74174E-05  7486   0.139E-02    0.218E-02
RMM:   7    -0.116072392892E+04   -0.11304E-04   -0.65402E-05  7341   0.934E-03    0.145E-02
RMM:   8    -0.116072393739E+04   -0.84729E-05   -0.37578E-05  7085   0.868E-03
  12 F= -.11607239E+04 E0= -.11607239E+04  d E =-.102346E-01  mag=     8.0000
       N       E                     dE             d eps       ncg     rms          rms(c)
DAV:   1    -0.116072187849E+04    0.20504E-02   -0.40737E+00 12752   0.231E+00    0.432E-01
RMM:   2    -0.116073122667E+04   -0.93482E-02   -0.98904E-02 12950   0.385E-01    0.287E-01
RMM:   3    -0.116073113996E+04    0.86702E-04   -0.45937E-03 13174   0.123E-01    0.181E-01
RMM:   4    -0.116073092511E+04    0.21486E-03   -0.12322E-03 13451   0.406E-02    0.910E-02
RMM:   5    -0.116073092632E+04   -0.12147E-05   -0.31280E-04  9568   0.213E-02    0.262E-02
RMM:   6    -0.116073093622E+04   -0.98953E-05   -0.55412E-05  7267   0.127E-02    0.166E-02
RMM:   7    -0.116073094803E+04   -0.11814E-04   -0.55314E-05  7170   0.932E-03    0.142E-02
RMM:   8    -0.116073095746E+04   -0.94287E-05   -0.32646E-05  6931   0.785E-03
  13 F= -.11607310E+04 E0= -.11607310E+04  d E =-.702007E-02  mag=     8.0000
       N       E                     dE             d eps       ncg     rms          rms(c)
DAV:   1    -0.116072590163E+04    0.50464E-02   -0.51884E+00 12656   0.261E+00    0.483E-01
RMM:   2    -0.116073772609E+04   -0.11824E-01   -0.12515E-01 12937   0.433E-01    0.302E-01
RMM:   3    -0.116073762665E+04    0.99442E-04   -0.59319E-03 13183   0.141E-01    0.191E-01
RMM:   4    -0.116073736443E+04    0.26222E-03   -0.16349E-03 14127   0.459E-02    0.896E-02
RMM:   5    -0.116073737866E+04   -0.14234E-04   -0.34506E-04  9841   0.213E-02    0.304E-02
RMM:   6    -0.116073739179E+04   -0.13127E-04   -0.63608E-05  7337   0.130E-02    0.198E-02
RMM:   7    -0.116073741102E+04   -0.19232E-04   -0.67783E-05  7263   0.998E-03    0.146E-02
RMM:   8    -0.116073742326E+04   -0.12241E-04   -0.35409E-05  6986   0.803E-03
  14 F= -.11607374E+04 E0= -.11607374E+04  d E =-.646580E-02  mag=     8.0000
       N       E                     dE             d eps       ncg     rms          rms(c)
DAV:   1    -0.116073670738E+04    0.70364E-03   -0.20415E+00 12888   0.164E+00    0.290E-01
RMM:   2    -0.116074135400E+04   -0.46466E-02   -0.49831E-02 12904   0.274E-01    0.193E-01
RMM:   3    -0.116074130218E+04    0.51826E-04   -0.23554E-03 12825   0.885E-02    0.124E-01
RMM:   4    -0.116074120353E+04    0.98641E-04   -0.61795E-04 11771   0.293E-02    0.640E-02
RMM:   5    -0.116074121185E+04   -0.83119E-05   -0.15707E-04  7611   0.177E-02    0.190E-02
RMM:   6    -0.116074122367E+04   -0.11820E-04   -0.48218E-05  7147   0.107E-02    0.154E-02
RMM:   7    -0.116074123394E+04   -0.10275E-04   -0.34035E-05  6924   0.839E-03    0.138E-02
RMM:   8    -0.116074124879E+04   -0.14853E-04   -0.27879E-05  6860   0.704E-03
  15 F= -.11607412E+04 E0= -.11607412E+04  d E =-.382553E-02  mag=     8.0000
       N       E                     dE             d eps       ncg     rms          rms(c)
DAV:   1    -0.116073985275E+04    0.13812E-02   -0.22262E+00 12656   0.171E+00    0.302E-01
RMM:   2    -0.116074489895E+04   -0.50462E-02   -0.53765E-02 12941   0.283E-01    0.190E-01
RMM:   3    -0.116074483586E+04    0.63087E-04   -0.25097E-03 12770   0.914E-02    0.122E-01
RMM:   4    -0.116074472976E+04    0.10610E-03   -0.65078E-04 11739   0.305E-02    0.566E-02
RMM:   5    -0.116074474637E+04   -0.16610E-04   -0.14233E-04  7430   0.175E-02    0.198E-02
RMM:   6    -0.116074475929E+04   -0.12921E-04   -0.52834E-05  7146   0.107E-02    0.160E-02
RMM:   7    -0.116074477019E+04   -0.10895E-04   -0.34644E-05  6937   0.848E-03    0.144E-02
RMM:   8    -0.116074478604E+04   -0.15848E-04   -0.27174E-05  6849   0.713E-03
  16 F= -.11607448E+04 E0= -.11607448E+04  d E =-.353724E-02  mag=     8.0000
       N       E                     dE             d eps       ncg     rms          rms(c)
DAV:   1    -0.116074392991E+04    0.84028E-03   -0.16209E+00 12720   0.145E+00    0.252E-01
RMM:   2    -0.116074761349E+04   -0.36836E-02   -0.38895E-02 12899   0.241E-01    0.158E-01
RMM:   3    -0.116074757905E+04    0.34444E-04   -0.18339E-03 12384   0.785E-02    0.102E-01
RMM:   4    -0.116074750985E+04    0.69194E-04   -0.46801E-04 10563   0.262E-02    0.469E-02
RMM:   5    -0.116074752903E+04   -0.19177E-04   -0.10729E-04  7273   0.156E-02    0.174E-02
RMM:   6    -0.116074754157E+04   -0.12538E-04   -0.42110E-05  7075   0.951E-03    0.148E-02
RMM:   7    -0.116074755309E+04   -0.11520E-04   -0.27789E-05  6859   0.766E-03    0.136E-02
RMM:   8    -0.116074757105E+04   -0.17963E-04   -0.24990E-05  6779   0.675E-03
  17 F= -.11607476E+04 E0= -.11607476E+04  d E =-.278501E-02  mag=     8.0000
       N       E                     dE             d eps       ncg     rms          rms(c)
DAV:   1    -0.116074704392E+04    0.50917E-03   -0.11677E+00 12712   0.123E+00    0.214E-01
RMM:   2    -0.116074970599E+04   -0.26621E-02   -0.27976E-02 12927   0.203E-01    0.133E-01
RMM:   3    -0.116074967772E+04    0.28266E-04   -0.12936E-03 11750   0.653E-02    0.857E-02
RMM:   4    -0.116074963060E+04    0.47120E-04   -0.31942E-04  8959   0.224E-02    0.401E-02
RMM:   5    -0.116074965077E+04   -0.20175E-04   -0.85147E-05  7199   0.137E-02    0.164E-02
RMM:   6    -0.116074966283E+04   -0.12056E-04   -0.33868E-05  6990   0.886E-03    0.147E-02
RMM:   7    -0.116074967394E+04   -0.11111E-04   -0.23571E-05  6758   0.652E-03    0.139E-02
RMM:   8    -0.116074969211E+04   -0.18167E-04   -0.20917E-05  6628   0.637E-03
  18 F= -.11607497E+04 E0= -.11607497E+04  d E =-.212106E-02  mag=     8.0000
