       N       E                     dE             d eps       ncg     rms          rms(c)
DAV:   1    -0.116340783521E+04   -0.11634E+04   -0.90046E-06  7648   0.746E-03    0.917E-03
RMM:   2    -0.116340783537E+04   -0.16385E-06   -0.42638E-06  5417   0.338E-03    0.111E-02
RMM:   3    -0.116340783546E+04   -0.90964E-07   -0.13707E-06  3481   0.224E-03    0.192E-03
RMM:   4    -0.116340783555E+04   -0.88490E-07   -0.78281E-07  2592   0.206E-03    0.261E-03
RMM:   5    -0.116340783559E+04   -0.41386E-07   -0.36978E-07  2049   0.196E-03    0.807E-04
RMM:   6    -0.116340783562E+04   -0.32305E-07   -0.11059E-07  1315   0.187E-03    0.686E-04
RMM:   7    -0.116340783566E+04   -0.36147E-07   -0.11743E-07  1263   0.187E-03    0.891E-04
RMM:   8    -0.116340783569E+04   -0.34270E-07   -0.10181E-07  1024   0.188E-03
   1 F= -.11634078E+04 E0= -.11634075E+04  d E =-.116341E+04  mag=    -2.0036
       N       E                     dE             d eps       ncg     rms          rms(c)
DAV:   1    -0.116340789991E+04   -0.64248E-04   -0.10605E-01 12224   0.373E-01    0.991E-02
RMM:   2    -0.116340807156E+04   -0.17165E-03   -0.32898E-03 12140   0.727E-02    0.101E-01
RMM:   3    -0.116340803894E+04    0.32615E-04   -0.11686E-04  7335   0.221E-02    0.703E-02
RMM:   4    -0.116340800793E+04    0.31014E-04   -0.10026E-04  7194   0.121E-02    0.427E-02
RMM:   5    -0.116340800025E+04    0.76846E-05   -0.25486E-05  6711   0.782E-03    0.178E-02
RMM:   6    -0.116340800017E+04    0.74462E-07   -0.86021E-06  5939   0.427E-03    0.113E-02
RMM:   7    -0.116340800037E+04   -0.19940E-06   -0.37124E-06  5159   0.341E-03    0.806E-03
RMM:   8    -0.116340800055E+04   -0.18465E-06   -0.19284E-06  4126   0.239E-03
   2 F= -.11634080E+04 E0= -.11634076E+04  d E =-.164861E-03  mag=    -2.0037
       N       E                     dE             d eps       ncg     rms          rms(c)
DAV:   1    -0.116340822999E+04   -0.22962E-03   -0.18390E-02 12176   0.154E-01    0.494E-02
RMM:   2    -0.116340823497E+04   -0.49728E-05   -0.67341E-04 11248   0.329E-02    0.501E-02
RMM:   3    -0.116340822298E+04    0.11982E-04   -0.28866E-05  6346   0.103E-02    0.338E-02
RMM:   4    -0.116340821139E+04    0.11592E-04   -0.34996E-05  6290   0.691E-03    0.221E-02
RMM:   5    -0.116340820901E+04    0.23850E-05   -0.74572E-06  5449   0.458E-03    0.101E-02
RMM:   6    -0.116340820882E+04    0.18869E-06   -0.27674E-06  4106   0.252E-03    0.738E-03
RMM:   7    -0.116340820884E+04   -0.19689E-07   -0.10576E-06  2935   0.242E-03    0.463E-03
RMM:   8    -0.116340820883E+04    0.12835E-07   -0.13208E-07  1798   0.187E-03
   3 F= -.11634082E+04 E0= -.11634078E+04  d E =-.208271E-03  mag=    -2.0038
