       N       E                     dE             d eps       ncg     rms          rms(c)
DAV:   1     0.119036148655E+05    0.11904E+05   -0.42100E+05 12352   0.131E+03
DAV:   2     0.645522942919E+03   -0.11258E+05   -0.10051E+05 12320   0.375E+02
DAV:   3    -0.136104924401E+04   -0.20066E+04   -0.19336E+04 13176   0.165E+02
DAV:   4    -0.149535940001E+04   -0.13431E+03   -0.13189E+03 16264   0.445E+01
DAV:   5    -0.150390187868E+04   -0.85425E+01   -0.84975E+01 22056   0.102E+01    0.182E+02
RMM:   6    -0.116503474478E+04    0.33887E+03   -0.15977E+03 12517   0.348E+01    0.106E+02
RMM:   7    -0.115040444259E+04    0.14630E+02   -0.63072E+01 12839   0.110E+01    0.644E+01
RMM:   8    -0.115403195297E+04   -0.36275E+01   -0.23430E+01 14024   0.584E+00    0.282E+01
RMM:   9    -0.115745435349E+04   -0.34224E+01   -0.49313E+00 14940   0.235E+00    0.941E+00
RMM:  10    -0.115909224279E+04   -0.16379E+01   -0.18678E+00 14112   0.132E+00    0.586E+00
RMM:  11    -0.115999468297E+04   -0.90244E+00   -0.83928E-01 15655   0.840E-01    0.401E+00
RMM:  12    -0.116075448582E+04   -0.75980E+00   -0.73327E-01 13064   0.783E-01    0.186E+00
RMM:  13    -0.116085590858E+04   -0.10142E+00   -0.18242E-01 15129   0.438E-01    0.137E+00
RMM:  14    -0.116089911798E+04   -0.43209E-01   -0.75878E-02 15651   0.233E-01    0.799E-01
RMM:  15    -0.116091492593E+04   -0.15808E-01   -0.33649E-02 15080   0.170E-01    0.381E-01
RMM:  16    -0.116091955498E+04   -0.46291E-02   -0.11774E-02 16458   0.978E-02    0.209E-01
RMM:  17    -0.116092145830E+04   -0.19033E-02   -0.43230E-03 14658   0.542E-02    0.155E-01
RMM:  18    -0.116092289670E+04   -0.14384E-02   -0.20914E-03 13139   0.375E-02    0.128E-01
RMM:  19    -0.116092487947E+04   -0.19828E-02   -0.19105E-03 12270   0.394E-02    0.107E-01
RMM:  20    -0.116092639717E+04   -0.15177E-02   -0.14413E-03 10890   0.323E-02    0.993E-02
RMM:  21    -0.116092795907E+04   -0.15619E-02   -0.13116E-03 10455   0.311E-02    0.945E-02
RMM:  22    -0.116093052260E+04   -0.25635E-02   -0.31804E-03 10308   0.505E-02    0.841E-02
RMM:  23    -0.116093463939E+04   -0.41168E-02   -0.13485E-02 11205   0.118E-01    0.704E-02
RMM:  24    -0.116093608061E+04   -0.14412E-02   -0.37613E-03 10640   0.468E-02    0.622E-02
RMM:  25    -0.116093701765E+04   -0.93704E-03   -0.16365E-03  9844   0.364E-02    0.529E-02
RMM:  26    -0.116093822654E+04   -0.12089E-02   -0.32410E-03  9989   0.555E-02    0.445E-02
RMM:  27    -0.116093908885E+04   -0.86231E-03   -0.46432E-03 10374   0.654E-02    0.377E-02
RMM:  28    -0.116093959545E+04   -0.50660E-03   -0.17546E-03  9931   0.347E-02    0.230E-02
RMM:  29    -0.116093978767E+04   -0.19222E-03   -0.87968E-04  9305   0.276E-02    0.201E-02
RMM:  30    -0.116093990919E+04   -0.12151E-03   -0.52590E-04  8783   0.210E-02    0.134E-02
RMM:  31    -0.116093995642E+04   -0.47235E-04   -0.17520E-04  7892   0.124E-02
   1 F= -.11609400E+04 E0= -.11609317E+04  d E =-.116094E+04  mag=     5.9798
       N       E                     dE             d eps       ncg     rms          rms(c)
DAV:   1    -0.114048493180E+04    0.20455E+02   -0.16302E+03 12456   0.398E+01    0.293E+01
RMM:   2    -0.116573855426E+04   -0.25254E+02   -0.28713E+02 14244   0.112E+01    0.180E+01
RMM:   3    -0.115974962045E+04    0.59889E+01   -0.18589E+01 13728   0.401E+00    0.136E+01
RMM:   4    -0.115701147722E+04    0.27381E+01   -0.76519E+00 13989   0.164E+00    0.900E+00
RMM:   5    -0.115799104387E+04   -0.97957E+00   -0.34398E+00 12960   0.103E+00    0.938E+00
RMM:   6    -0.115715290122E+04    0.83814E+00   -0.17500E+00 12801   0.711E-01    0.401E+00
RMM:   7    -0.115718254167E+04   -0.29640E-01   -0.11626E+00 13622   0.705E-01    0.324E+00
RMM:   8    -0.115708044001E+04    0.10210E+00   -0.10769E-01 13531   0.297E-01    0.232E+00
RMM:   9    -0.115701773045E+04    0.62710E-01   -0.21211E-01 12993   0.229E-01    0.829E-01
RMM:  10    -0.115702250731E+04   -0.47769E-02   -0.22194E-02 12776   0.146E-01    0.489E-01
RMM:  11    -0.115702582243E+04   -0.33151E-02   -0.10901E-02 14063   0.782E-02    0.326E-01
RMM:  12    -0.115702651786E+04   -0.69542E-03   -0.67385E-03 13253   0.526E-02    0.180E-01
RMM:  13    -0.115702768190E+04   -0.11640E-02   -0.29561E-03 12531   0.342E-02    0.251E-01
RMM:  14    -0.115702703715E+04    0.64475E-03   -0.77530E-04 10233   0.227E-02    0.131E-01
RMM:  15    -0.115702692711E+04    0.11004E-03   -0.84512E-04  9347   0.180E-02    0.377E-02
RMM:  16    -0.115702696907E+04   -0.41956E-04   -0.10619E-04  8215   0.121E-02
   2 F= -.11570270E+04 E0= -.11570233E+04  d E =0.391299E+01  mag=     5.9752
       N       E                     dE             d eps       ncg     rms          rms(c)
DAV:   1    -0.115928615453E+04   -0.22592E+01   -0.56657E+02 12752   0.192E+01    0.172E+01
RMM:   2    -0.116146772737E+04   -0.21816E+01   -0.27893E+01 12288   0.522E+00    0.169E+01
RMM:   3    -0.116143254332E+04    0.35184E-01   -0.20682E+00 13040   0.154E+00    0.117E+01
RMM:   4    -0.116091559584E+04    0.51695E+00   -0.13030E+00 12941   0.106E+00    0.477E+00
RMM:   5    -0.116076616726E+04    0.14943E+00   -0.51485E-01 13480   0.701E-01    0.160E+00
RMM:   6    -0.116075951817E+04    0.66491E-02   -0.73902E-02 13357   0.269E-01    0.120E+00
RMM:   7    -0.116076630581E+04   -0.67876E-02   -0.16986E-02 14429   0.120E-01    0.790E-01
RMM:   8    -0.116078409331E+04   -0.17788E-01   -0.16992E-02 12477   0.123E-01    0.140E+00
RMM:   9    -0.116077842839E+04    0.56649E-02   -0.25040E-03 13439   0.512E-02    0.110E+00
RMM:  10    -0.116076832620E+04    0.10102E-01   -0.17159E-02 12166   0.110E-01    0.927E-01
RMM:  11    -0.116076405645E+04    0.42697E-02   -0.12299E-02 13069   0.945E-02    0.114E+00
RMM:  12    -0.116076837104E+04   -0.43146E-02   -0.12026E-03 10889   0.388E-02    0.109E+00
RMM:  13    -0.116076862544E+04   -0.25440E-03   -0.12606E-04  8420   0.126E-02    0.109E+00
RMM:  14    -0.116076837893E+04    0.24652E-03   -0.50479E-05  8011   0.852E-03    0.109E+00
RMM:  15    -0.116076943744E+04   -0.10585E-02   -0.14932E-04  8231   0.125E-02    0.108E+00
RMM:  16    -0.116077609334E+04   -0.66559E-02   -0.66932E-03 12057   0.680E-02    0.109E+00
RMM:  17    -0.116077585965E+04    0.23369E-03   -0.37765E-04  9707   0.254E-02    0.109E+00
RMM:  18    -0.116077437613E+04    0.14835E-02   -0.12748E-03 10753   0.306E-02    0.112E+00
RMM:  19    -0.116077426635E+04    0.10978E-03   -0.12000E-04  7724   0.154E-02    0.107E+00
RMM:  20    -0.116077612321E+04   -0.18569E-02   -0.19161E-02 12116   0.113E-01    0.781E-01
RMM:  21    -0.116077955323E+04   -0.34300E-02   -0.10735E-02 13079   0.945E-02    0.817E-01
RMM:  22    -0.116077808849E+04    0.14647E-02   -0.67822E-04 11065   0.261E-02    0.812E-01
RMM:  23    -0.116077639238E+04    0.16961E-02   -0.10548E-03 10760   0.310E-02    0.809E-01
RMM:  24    -0.116077938742E+04   -0.29950E-02   -0.44155E-03 11482   0.692E-02    0.113E+00
RMM:  25    -0.116077738109E+04    0.20063E-02   -0.10809E-03 10731   0.362E-02    0.104E+00
RMM:  26    -0.116078052462E+04   -0.31435E-02   -0.42833E-03 11973   0.556E-02    0.839E-01
RMM:  27    -0.116079316167E+04   -0.12637E-01   -0.50613E-02 12301   0.189E-01    0.717E-01
RMM:  28    -0.116079428802E+04   -0.11264E-02   -0.87992E-03 12839   0.104E-01    0.741E-01
RMM:  29    -0.116079481951E+04   -0.53149E-03   -0.59713E-03 13483   0.612E-02    0.775E-01
RMM:  30    -0.116079493890E+04   -0.11939E-03   -0.40432E-03 12706   0.548E-02    0.618E-01
RMM:  31    -0.116079069260E+04    0.42463E-02   -0.42867E-03 11732   0.689E-02    0.773E-01
RMM:  32    -0.116079051740E+04    0.17520E-03   -0.33866E-04  9531   0.213E-02    0.737E-01
RMM:  33    -0.116079093853E+04   -0.42114E-03   -0.12899E-04  8135   0.125E-02    0.753E-01
RMM:  34    -0.116079043346E+04    0.50508E-03   -0.75577E-05  7912   0.128E-02    0.773E-01
RMM:  35    -0.116079003805E+04    0.39541E-03   -0.48361E-05  7536   0.749E-03    0.771E-01
RMM:  36    -0.116078926953E+04    0.76851E-03   -0.11897E-04  7972   0.116E-02    0.775E-01
RMM:  37    -0.116078709669E+04    0.21728E-02   -0.91652E-04 10395   0.289E-02    0.792E-01
RMM:  38    -0.116078954177E+04   -0.24451E-02   -0.38319E-04  8987   0.234E-02    0.792E-01
RMM:  39    -0.116078997867E+04   -0.43690E-03   -0.70122E-05  7331   0.968E-03    0.792E-01
RMM:  40    -0.116078556572E+04    0.44129E-02   -0.15809E-03 10435   0.420E-02
   3 F= -.11607856E+04 E0= -.11607806E+04  d E =-.375860E+01  mag=     5.9073
       N       E                     dE             d eps       ncg     rms          rms(c)
DAV:   1    -0.116124895755E+04   -0.45898E+00   -0.21826E+02 12600   0.156E+01    0.505E+00
RMM:   2    -0.116202938705E+04   -0.78043E+00   -0.75979E+00 12288   0.307E+00    0.680E+00
RMM:   3    -0.116192761393E+04    0.10177E+00   -0.31191E-01 13445   0.696E-01    0.532E+00
RMM:   4    -0.116185113642E+04    0.76478E-01   -0.19890E-01 12857   0.431E-01    0.248E+00
RMM:   5    -0.116185013186E+04    0.10046E-02   -0.95638E-02 12896   0.313E-01    0.809E-01
RMM:   6    -0.116184683427E+04    0.32976E-02   -0.23849E-02 13605   0.143E-01    0.461E-01
RMM:   7    -0.116184680388E+04    0.30393E-04   -0.33470E-03 14184   0.541E-02    0.268E-01
RMM:   8    -0.116184764294E+04   -0.83906E-03   -0.25256E-03 13156   0.468E-02    0.952E-02
RMM:   9    -0.116184771179E+04   -0.68854E-04   -0.53144E-04 11283   0.239E-02
   4 F= -.11618477E+04 E0= -.11618461E+04  d E =-.106215E+01  mag=     5.9726
       N       E                     dE             d eps       ncg     rms          rms(c)
DAV:   1    -0.116227537190E+04   -0.42773E+00   -0.61475E+01 12960   0.808E+00    0.257E+00
RMM:   2    -0.116240728630E+04   -0.13191E+00   -0.18391E+00 12288   0.155E+00    0.253E+00
RMM:   3    -0.116238916668E+04    0.18120E-01   -0.81651E-02 13440   0.364E-01    0.156E+00
RMM:   4    -0.116238057739E+04    0.85893E-02   -0.36300E-02 13170   0.189E-01    0.880E-01
RMM:   5    -0.116237493791E+04    0.56395E-02   -0.11623E-02 12379   0.116E-01    0.211E-01
RMM:   6    -0.116237501007E+04   -0.72154E-04   -0.17335E-03 13010   0.390E-02    0.165E-01
RMM:   7    -0.116237501008E+04   -0.14887E-07   -0.35197E-04  9720   0.174E-02    0.101E-01
RMM:   8    -0.116237505675E+04   -0.46671E-04   -0.21340E-04  8669   0.178E-02
   5 F= -.11623751E+04 E0= -.11623719E+04  d E =-.527345E+00  mag=     5.9387
       N       E                     dE             d eps       ncg     rms          rms(c)
DAV:   1    -0.116268786680E+04   -0.31286E+00   -0.49779E+01 12752   0.670E+00    0.252E+00
RMM:   2    -0.116279297779E+04   -0.10511E+00   -0.13555E+00 12310   0.123E+00    0.203E+00
RMM:   3    -0.116278312711E+04    0.98507E-02   -0.75297E-02 13115   0.343E-01    0.114E+00
RMM:   4    -0.116277682908E+04    0.62980E-02   -0.30852E-02 12952   0.163E-01    0.536E-01
RMM:   5    -0.116277457372E+04    0.22554E-02   -0.57937E-03 13047   0.831E-02    0.190E-01
RMM:   6    -0.116277464179E+04   -0.68076E-04   -0.10207E-03 12804   0.283E-02    0.123E-01
RMM:   7    -0.116277470518E+04   -0.63392E-04   -0.34837E-04  9812   0.189E-02    0.627E-02
RMM:   8    -0.116277473495E+04   -0.29770E-04   -0.15201E-04  8476   0.133E-02
   6 F= -.11627747E+04 E0= -.11627704E+04  d E =-.399678E+00  mag=     5.9065
       N       E                     dE             d eps       ncg     rms          rms(c)
DAV:   1    -0.116287697044E+04   -0.10227E+00   -0.14881E+01 12768   0.397E+00    0.148E+00
RMM:   2    -0.116291064650E+04   -0.33676E-01   -0.41412E-01 12291   0.733E-01    0.116E+00
RMM:   3    -0.116290844571E+04    0.22008E-02   -0.22790E-02 13022   0.212E-01    0.693E-01
RMM:   4    -0.116290660532E+04    0.18404E-02   -0.10178E-02 13243   0.987E-02    0.306E-01
RMM:   5    -0.116290603516E+04    0.57016E-03   -0.18999E-03 12455   0.487E-02    0.109E-01
RMM:   6    -0.116290606449E+04   -0.29325E-04   -0.35120E-04  9700   0.175E-02    0.696E-02
RMM:   7    -0.116290609235E+04   -0.27869E-04   -0.13253E-04  8172   0.135E-02    0.380E-02
RMM:   8    -0.116290610794E+04   -0.15581E-04   -0.72606E-05  7608   0.102E-02
   7 F= -.11629061E+04 E0= -.11629019E+04  d E =-.131373E+00  mag=     5.9031
       N       E                     dE             d eps       ncg     rms          rms(c)
DAV:   1    -0.116293830546E+04   -0.32213E-01   -0.14018E+01 12784   0.409E+00    0.143E+00
RMM:   2    -0.116297475210E+04   -0.36447E-01   -0.39350E-01 12305   0.754E-01    0.117E+00
RMM:   3    -0.116297382740E+04    0.92470E-03   -0.20924E-02 13185   0.227E-01    0.747E-01
RMM:   4    -0.116297257936E+04    0.12480E-02   -0.88611E-03 13841   0.947E-02    0.316E-01
RMM:   5    -0.116297214960E+04    0.42977E-03   -0.19431E-03 13188   0.468E-02    0.964E-02
RMM:   6    -0.116297215720E+04   -0.76082E-05   -0.27974E-04  9180   0.174E-02    0.594E-02
RMM:   7    -0.116297218164E+04   -0.24439E-04   -0.13094E-04  7950   0.131E-02    0.317E-02
RMM:   8    -0.116297219517E+04   -0.13523E-04   -0.73039E-05  7459   0.109E-02
   8 F= -.11629722E+04 E0= -.11629678E+04  d E =-.660872E-01  mag=     5.8996
       N       E                     dE             d eps       ncg     rms          rms(c)
DAV:   1    -0.116297854184E+04   -0.63602E-02   -0.85215E+00 12848   0.332E+00    0.974E-01
RMM:   2    -0.116300152915E+04   -0.22987E-01   -0.21818E-01 12355   0.584E-01    0.691E-01
RMM:   3    -0.116300206576E+04   -0.53660E-03   -0.11584E-02 13005   0.195E-01    0.427E-01
RMM:   4    -0.116300149569E+04    0.57007E-03   -0.39668E-03 14555   0.676E-02    0.205E-01
RMM:   5    -0.116300143850E+04    0.57184E-04   -0.91213E-04 12628   0.304E-02    0.743E-02
RMM:   6    -0.116300145156E+04   -0.13062E-04   -0.14336E-04  8054   0.149E-02    0.361E-02
RMM:   7    -0.116300146793E+04   -0.16367E-04   -0.86720E-05  7516   0.115E-02    0.262E-02
RMM:   8    -0.116300147805E+04   -0.10117E-04   -0.54037E-05  7261   0.967E-03
   9 F= -.11630015E+04 E0= -.11629971E+04  d E =-.292829E-01  mag=     5.8941
       N       E                     dE             d eps       ncg     rms          rms(c)
DAV:   1    -0.116299939747E+04    0.20705E-02   -0.12251E+01 12744   0.400E+00    0.988E-01
RMM:   2    -0.116303153149E+04   -0.32134E-01   -0.29582E-01 12582   0.668E-01    0.613E-01
RMM:   3    -0.116303249049E+04   -0.95899E-03   -0.14833E-02 12887   0.226E-01    0.360E-01
RMM:   4    -0.116303187726E+04    0.61323E-03   -0.40125E-03 15797   0.706E-02    0.192E-01
RMM:   5    -0.116303183560E+04    0.41664E-04   -0.97886E-04 13346   0.297E-02    0.867E-02
RMM:   6    -0.116303186239E+04   -0.26797E-04   -0.19871E-04  8579   0.167E-02    0.316E-02
RMM:   7    -0.116303187725E+04   -0.14856E-04   -0.84983E-05  7627   0.118E-02    0.201E-02
RMM:   8    -0.116303189016E+04   -0.12912E-04   -0.80914E-05  7470   0.104E-02
  10 F= -.11630319E+04 E0= -.11630276E+04  d E =-.304121E-01  mag=     5.8936
       N       E                     dE             d eps       ncg     rms          rms(c)
DAV:   1    -0.116303108832E+04    0.78893E-03   -0.85588E+00 12816   0.335E+00    0.714E-01
RMM:   2    -0.116305202347E+04   -0.20935E-01   -0.20678E-01 12475   0.555E-01    0.447E-01
RMM:   3    -0.116305234791E+04   -0.32444E-03   -0.10397E-02 12688   0.192E-01    0.277E-01
RMM:   4    -0.116305194151E+04    0.40640E-03   -0.27061E-03 15501   0.578E-02    0.162E-01
RMM:   5    -0.116305190382E+04    0.37685E-04   -0.67690E-04 12418   0.249E-02    0.636E-02
RMM:   6    -0.116305192599E+04   -0.22164E-04   -0.16210E-04  8171   0.156E-02    0.245E-02
RMM:   7    -0.116305193698E+04   -0.10994E-04   -0.64505E-05  7412   0.109E-02    0.171E-02
RMM:   8    -0.116305194689E+04   -0.99124E-05   -0.67398E-05  7273   0.989E-03
  11 F= -.11630519E+04 E0= -.11630477E+04  d E =-.200567E-01  mag=     5.8947
       N       E                     dE             d eps       ncg     rms          rms(c)
DAV:   1    -0.116305133061E+04    0.60637E-03   -0.76248E+00 12792   0.316E+00    0.568E-01
RMM:   2    -0.116306879324E+04   -0.17463E-01   -0.18351E-01 12370   0.519E-01    0.353E-01
RMM:   3    -0.116306878356E+04    0.96838E-05   -0.91037E-03 12413   0.181E-01    0.229E-01
RMM:   4    -0.116306843170E+04    0.35185E-03   -0.23926E-03 15234   0.536E-02    0.133E-01
RMM:   5    -0.116306841960E+04    0.12103E-04   -0.57938E-04 12043   0.233E-02    0.429E-02
RMM:   6    -0.116306843718E+04   -0.17582E-04   -0.12447E-04  7930   0.147E-02    0.215E-02
RMM:   7    -0.116306844664E+04   -0.94589E-05   -0.58969E-05  7381   0.101E-02    0.137E-02
RMM:   8    -0.116306845426E+04   -0.76149E-05   -0.59031E-05  7171   0.946E-03
  12 F= -.11630685E+04 E0= -.11630642E+04  d E =-.165074E-01  mag=     5.8931
       N       E                     dE             d eps       ncg     rms          rms(c)
DAV:   1    -0.116306309488E+04    0.53518E-02   -0.93645E+00 12704   0.350E+00    0.603E-01
RMM:   2    -0.116308431466E+04   -0.21220E-01   -0.22674E-01 12348   0.578E-01    0.398E-01
RMM:   3    -0.116308422656E+04    0.88093E-04   -0.11158E-02 12391   0.200E-01    0.264E-01
RMM:   4    -0.116308381262E+04    0.41395E-03   -0.30966E-03 15416   0.600E-02    0.153E-01
RMM:   5    -0.116308378450E+04    0.28121E-04   -0.74430E-04 12758   0.254E-02    0.394E-02
RMM:   6    -0.116308380172E+04   -0.17224E-04   -0.13268E-04  8240   0.151E-02    0.224E-02
RMM:   7    -0.116308381226E+04   -0.10542E-04   -0.80004E-05  7548   0.104E-02    0.131E-02
RMM:   8    -0.116308381976E+04   -0.74926E-05   -0.66899E-05  7341   0.960E-03
  13 F= -.11630838E+04 E0= -.11630796E+04  d E =-.153655E-01  mag=     5.8929
       N       E                     dE             d eps       ncg     rms          rms(c)
DAV:   1    -0.116307534985E+04    0.84624E-02   -0.98589E+00 12712   0.359E+00    0.614E-01
RMM:   2    -0.116309746526E+04   -0.22115E-01   -0.23545E-01 12378   0.587E-01    0.386E-01
RMM:   3    -0.116309737054E+04    0.94722E-04   -0.11779E-02 12417   0.207E-01    0.251E-01
RMM:   4    -0.116309692317E+04    0.44737E-03   -0.32127E-03 15472   0.611E-02    0.134E-01
RMM:   5    -0.116309693154E+04   -0.83679E-05   -0.69812E-04 12746   0.249E-02    0.357E-02
RMM:   6    -0.116309694966E+04   -0.18117E-04   -0.13572E-04  8426   0.148E-02    0.216E-02
RMM:   7    -0.116309696249E+04   -0.12837E-04   -0.93497E-05  7631   0.107E-02    0.120E-02
RMM:   8    -0.116309696977E+04   -0.72806E-05   -0.67822E-05  7368   0.940E-03
  14 F= -.11630970E+04 E0= -.11630927E+04  d E =-.131500E-01  mag=     5.8931
       N       E                     dE             d eps       ncg     rms          rms(c)
DAV:   1    -0.116309456831E+04    0.23942E-02   -0.46393E+00 12848   0.246E+00    0.411E-01
RMM:   2    -0.116310502275E+04   -0.10454E-01   -0.11157E-01 12435   0.403E-01    0.259E-01
RMM:   3    -0.116310494212E+04    0.80630E-04   -0.55075E-03 12437   0.140E-01    0.169E-01
RMM:   4    -0.116310473109E+04    0.21103E-03   -0.14744E-03 13933   0.421E-02    0.884E-02
RMM:   5    -0.116310473426E+04   -0.31720E-05   -0.32336E-04 10190   0.195E-02    0.246E-02
RMM:   6    -0.116310474372E+04   -0.94600E-05   -0.66620E-05  7333   0.125E-02    0.151E-02
RMM:   7    -0.116310475145E+04   -0.77340E-05   -0.66723E-05  7206   0.967E-03    0.107E-02
RMM:   8    -0.116310475560E+04   -0.41439E-05   -0.36543E-05  6877   0.830E-03
  15 F= -.11631048E+04 E0= -.11631005E+04  d E =-.778582E-02  mag=     5.8926
       N       E                     dE             d eps       ncg     rms          rms(c)
DAV:   1    -0.116310380192E+04    0.94953E-03   -0.29529E+00 12896   0.196E+00    0.331E-01
RMM:   2    -0.116311045840E+04   -0.66565E-02   -0.71080E-02 12474   0.322E-01    0.212E-01
RMM:   3    -0.116311039738E+04    0.61017E-04   -0.34937E-03 12442   0.110E-01    0.137E-01
RMM:   4    -0.116311026355E+04    0.13383E-03   -0.92741E-04 13099   0.336E-02    0.727E-02
RMM:   5    -0.116311025949E+04    0.40627E-05   -0.21527E-04  8475   0.174E-02    0.199E-02
RMM:   6    -0.116311026584E+04   -0.63523E-05   -0.52853E-05  7194   0.110E-02    0.128E-02
RMM:   7    -0.116311027031E+04   -0.44677E-05   -0.39457E-05  6993   0.864E-03    0.954E-03
RMM:   8    -0.116311027317E+04   -0.28598E-05   -0.24233E-05  6715   0.711E-03
  16 F= -.11631103E+04 E0= -.11631060E+04  d E =-.551757E-02  mag=     5.8924
       N       E                     dE             d eps       ncg     rms          rms(c)
DAV:   1    -0.116310744024E+04    0.28301E-02   -0.36639E+00 12768   0.218E+00    0.358E-01
RMM:   2    -0.116311566484E+04   -0.82246E-02   -0.87537E-02 12479   0.357E-01    0.228E-01
RMM:   3    -0.116311561287E+04    0.51966E-04   -0.43471E-03 12402   0.124E-01    0.149E-01
RMM:   4    -0.116311545547E+04    0.15740E-03   -0.11330E-03 13488   0.371E-02    0.798E-02
RMM:   5    -0.116311545147E+04    0.39998E-05   -0.24823E-04  8978   0.175E-02    0.213E-02
RMM:   6    -0.116311545864E+04   -0.71674E-05   -0.56685E-05  7220   0.111E-02    0.132E-02
RMM:   7    -0.116311546323E+04   -0.45900E-05   -0.42808E-05  7049   0.868E-03    0.970E-03
RMM:   8    -0.116311546616E+04   -0.29261E-05   -0.27333E-05  6745   0.727E-03
  17 F= -.11631155E+04 E0= -.11631112E+04  d E =-.519299E-02  mag=     5.8927
       N       E                     dE             d eps       ncg     rms          rms(c)
DAV:   1    -0.116311451641E+04    0.94682E-03   -0.20735E+00 12800   0.164E+00    0.270E-01
RMM:   2    -0.116311918667E+04   -0.46703E-02   -0.49618E-02 12545   0.268E-01    0.166E-01
RMM:   3    -0.116311913926E+04    0.47410E-04   -0.23963E-03 12430   0.900E-02    0.108E-01
RMM:   4    -0.116311904254E+04    0.96716E-04   -0.63195E-04 11951   0.277E-02    0.511E-02
RMM:   5    -0.116311904634E+04   -0.37969E-05   -0.11797E-04  7389   0.148E-02    0.157E-02
RMM:   6    -0.116311905227E+04   -0.59383E-05   -0.45321E-05  7082   0.926E-03    0.102E-02
RMM:   7    -0.116311905526E+04   -0.29871E-05   -0.27265E-05  6841   0.752E-03    0.726E-03
RMM:   8    -0.116311905748E+04   -0.22205E-05   -0.18888E-05  6525   0.589E-03
  18 F= -.11631191E+04 E0= -.11631148E+04  d E =-.359132E-02  mag=     5.8913
