       N       E                     dE             d eps       ncg     rms          rms(c)
DAV:   1     0.121997538989E+05    0.12200E+05   -0.42969E+05 12320   0.133E+03
DAV:   2     0.733010858359E+03   -0.11467E+05   -0.10251E+05 12296   0.383E+02
DAV:   3    -0.135911470672E+04   -0.20921E+04   -0.20099E+04 13288   0.169E+02
DAV:   4    -0.150276209185E+04   -0.14365E+03   -0.14130E+03 16160   0.473E+01
DAV:   5    -0.151231878073E+04   -0.95567E+01   -0.95138E+01 22208   0.113E+01    0.181E+02
RMM:   6    -0.117679570143E+04    0.33552E+03   -0.17425E+03 12556   0.376E+01    0.148E+02
RMM:   7    -0.115718807953E+04    0.19608E+02   -0.66987E+01 12916   0.122E+01    0.102E+02
RMM:   8    -0.119168448182E+04   -0.34496E+02   -0.14698E+02 15508   0.108E+01    0.121E+02
RMM:   9    -0.115527640168E+04    0.36408E+02   -0.25016E+01 13051   0.629E+00    0.457E+01
RMM:  10    -0.118666487843E+04   -0.31388E+02   -0.21759E+01 13919   0.422E+00    0.517E+01
RMM:  11    -0.115663965345E+04    0.30025E+02   -0.22088E+01 12534   0.538E+00    0.313E+01
RMM:  12    -0.115871425109E+04   -0.20746E+01   -0.31081E+00 15371   0.160E+00    0.279E+01
RMM:  13    -0.116041732675E+04   -0.17031E+01   -0.14224E+00 13677   0.133E+00    0.235E+01
RMM:  14    -0.116156787665E+04   -0.11505E+01   -0.87456E-01 13268   0.986E-01    0.195E+01
RMM:  15    -0.116205950627E+04   -0.49163E+00   -0.59452E-01 14551   0.804E-01    0.149E+01
RMM:  16    -0.116220478481E+04   -0.14528E+00   -0.19630E-01 15134   0.448E-01    0.118E+01
RMM:  17    -0.116224708536E+04   -0.42301E-01   -0.12523E-01 13257   0.354E-01    0.822E+00
RMM:  18    -0.116225564712E+04   -0.85618E-02   -0.48856E-02 15026   0.243E-01    0.602E+00
RMM:  19    -0.116225753946E+04   -0.18923E-02   -0.20264E-02 15807   0.142E-01    0.451E+00
RMM:  20    -0.116225884846E+04   -0.13090E-02   -0.11053E-02 14263   0.115E-01    0.322E+00
RMM:  21    -0.116226076657E+04   -0.19181E-02   -0.59747E-03 13971   0.909E-02    0.231E+00
RMM:  22    -0.116226337030E+04   -0.26037E-02   -0.46472E-03 13017   0.864E-02    0.164E+00
RMM:  23    -0.116226585468E+04   -0.24844E-02   -0.29454E-03 12061   0.683E-02    0.131E+00
RMM:  24    -0.116226371305E+04    0.21416E-02   -0.68589E-04 10044   0.413E-02    0.147E+00
RMM:  25    -0.116226669850E+04   -0.29854E-02   -0.15451E-03 10775   0.612E-02    0.156E+00
RMM:  26    -0.116225439971E+04    0.12299E-01   -0.24647E-02 11933   0.235E-01    0.164E+00
RMM:  27    -0.116225536195E+04   -0.96224E-03   -0.41390E-03 11436   0.856E-02    0.166E+00
RMM:  28    -0.116225623261E+04   -0.87066E-03   -0.50003E-04  9118   0.341E-02    0.155E+00
RMM:  29    -0.116225443763E+04    0.17950E-02   -0.88179E-03 11678   0.133E-01    0.679E-01
RMM:  30    -0.116225555654E+04   -0.11189E-02   -0.18406E-03 10591   0.670E-02    0.660E-01
RMM:  31    -0.116225630822E+04   -0.75168E-03   -0.19067E-03 10522   0.608E-02    0.435E-01
RMM:  32    -0.116225590700E+04    0.40122E-03   -0.55086E-04  9392   0.393E-02    0.323E-01
RMM:  33    -0.116225576953E+04    0.13747E-03   -0.41053E-04  8456   0.284E-02    0.211E-01
RMM:  34    -0.116225569556E+04    0.73971E-04   -0.10076E-03  9485   0.421E-02    0.916E-02
RMM:  35    -0.116225590384E+04   -0.20828E-03   -0.35606E-04  8192   0.253E-02    0.601E-02
RMM:  36    -0.116225601944E+04   -0.11560E-03   -0.16383E-04  7594   0.175E-02    0.278E-02
RMM:  37    -0.116225611741E+04   -0.97971E-04   -0.57890E-04  8716   0.350E-02
   1 F= -.11622561E+04 E0= -.11622561E+04  d E =-.116226E+04  mag=     7.9978
       N       E                     dE             d eps       ncg     rms          rms(c)
DAV:   1    -0.115904124384E+04    0.32148E+01   -0.40523E+02 13648   0.183E+01    0.119E+01
RMM:   2    -0.116226466640E+04   -0.32234E+01   -0.16523E+01 12297   0.455E+00    0.135E+01
RMM:   3    -0.116215107857E+04    0.11359E+00   -0.15752E+00 12495   0.199E+00    0.549E+00
RMM:   4    -0.116212787433E+04    0.23204E-01   -0.28800E-01 15216   0.625E-01    0.318E+00
RMM:   5    -0.116212329896E+04    0.45754E-02   -0.12649E-01 13059   0.327E-01    0.156E+00
RMM:   6    -0.116212682928E+04   -0.35303E-02   -0.43266E-02 14019   0.234E-01    0.805E-01
RMM:   7    -0.116212631296E+04    0.51632E-03   -0.96343E-03 13186   0.108E-01    0.600E-01
RMM:   8    -0.116212674839E+04   -0.43543E-03   -0.44862E-03 12933   0.709E-02    0.239E-01
RMM:   9    -0.116212719942E+04   -0.45103E-03   -0.13741E-03 11934   0.398E-02    0.182E-01
RMM:  10    -0.116212747867E+04   -0.27925E-03   -0.50145E-04  9694   0.231E-02    0.114E-01
RMM:  11    -0.116212776905E+04   -0.29039E-03   -0.33390E-04  8660   0.196E-02    0.918E-02
RMM:  12    -0.116212813957E+04   -0.37052E-03   -0.34578E-04  8349   0.216E-02    0.674E-02
RMM:  13    -0.116212836207E+04   -0.22250E-03   -0.20444E-04  7787   0.162E-02    0.548E-02
RMM:  14    -0.116212849384E+04   -0.13177E-03   -0.10292E-04  7434   0.121E-02    0.548E-02
RMM:  15    -0.116212864145E+04   -0.14761E-03   -0.84915E-05  7289   0.110E-02    0.529E-02
RMM:  16    -0.116212902121E+04   -0.37975E-03   -0.30842E-04  7876   0.207E-02    0.494E-02
RMM:  17    -0.116212970875E+04   -0.68755E-03   -0.13763E-03  9125   0.435E-02    0.445E-02
RMM:  18    -0.116213037622E+04   -0.66747E-03   -0.25634E-03  9778   0.594E-02    0.333E-02
RMM:  19    -0.116213069206E+04   -0.31584E-03   -0.98057E-04  8547   0.338E-02    0.301E-02
RMM:  20    -0.116213084999E+04   -0.15793E-03   -0.44073E-04  7817   0.218E-02    0.273E-02
RMM:  21    -0.116213101337E+04   -0.16338E-03   -0.50618E-04  8071   0.246E-02    0.219E-02
RMM:  22    -0.116213117086E+04   -0.15749E-03   -0.94062E-04  8701   0.348E-02    0.156E-02
RMM:  23    -0.116213124619E+04   -0.75329E-04   -0.37144E-04  7566   0.208E-02
   2 F= -.11621312E+04 E0= -.11621312E+04  d E =0.124871E+00  mag=     8.0000
       N       E                     dE             d eps       ncg     rms          rms(c)
DAV:   1    -0.116206570392E+04    0.65467E-01   -0.97834E+01 12672   0.899E+00    0.619E+00
RMM:   2    -0.116256488558E+04   -0.49918E+00   -0.27968E+00 12301   0.203E+00    0.476E+00
RMM:   3    -0.116259530651E+04   -0.30421E-01   -0.21715E-01 12513   0.801E-01    0.287E+00
RMM:   4    -0.116258634219E+04    0.89643E-02   -0.55804E-02 14360   0.292E-01    0.174E+00
RMM:   5    -0.116258343219E+04    0.29100E-02   -0.31749E-02 12493   0.191E-01    0.971E-01
RMM:   6    -0.116258378777E+04   -0.35558E-03   -0.88725E-03 12832   0.124E-01    0.292E-01
RMM:   7    -0.116258398616E+04   -0.19839E-03   -0.16185E-03 13651   0.421E-02    0.236E-01
RMM:   8    -0.116258410626E+04   -0.12010E-03   -0.85106E-04 11009   0.314E-02    0.109E-01
RMM:   9    -0.116258432691E+04   -0.22065E-03   -0.22296E-04  8439   0.221E-02    0.650E-02
RMM:  10    -0.116258444508E+04   -0.11817E-03   -0.10101E-04  7661   0.131E-02    0.539E-02
RMM:  11    -0.116258456732E+04   -0.12225E-03   -0.67999E-05  7434   0.113E-02    0.497E-02
RMM:  12    -0.116258474285E+04   -0.17553E-03   -0.89358E-05  7398   0.125E-02    0.477E-02
RMM:  13    -0.116258493781E+04   -0.19496E-03   -0.11526E-04  7412   0.130E-02    0.424E-02
RMM:  14    -0.116258515359E+04   -0.21578E-03   -0.15756E-04  7450   0.149E-02    0.413E-02
RMM:  15    -0.116258542729E+04   -0.27370E-03   -0.28292E-04  7740   0.198E-02    0.376E-02
RMM:  16    -0.116258590587E+04   -0.47858E-03   -0.12634E-03  9060   0.431E-02    0.376E-02
RMM:  17    -0.116258621117E+04   -0.30530E-03   -0.11003E-03  8714   0.393E-02    0.260E-02
RMM:  18    -0.116258635365E+04   -0.14248E-03   -0.41584E-04  7831   0.227E-02    0.218E-02
RMM:  19    -0.116258644279E+04   -0.89144E-04   -0.24603E-04  7467   0.178E-02
   3 F= -.11625864E+04 E0= -.11625864E+04  d E =-.455197E+00  mag=     8.0000
       N       E                     dE             d eps       ncg     rms          rms(c)
DAV:   1    -0.116262430183E+04   -0.37948E-01   -0.12351E+01 12848   0.375E+00    0.158E+00
RMM:   2    -0.116265832883E+04   -0.34027E-01   -0.35586E-01 12297   0.770E-01    0.134E+00
RMM:   3    -0.116265931410E+04   -0.98527E-03   -0.23470E-02 13054   0.267E-01    0.866E-01
RMM:   4    -0.116265833881E+04    0.97528E-03   -0.78811E-03 12916   0.115E-01    0.680E-01
RMM:   5    -0.116265720354E+04    0.11353E-02   -0.48722E-03 12225   0.812E-02    0.259E-01
RMM:   6    -0.116265719517E+04    0.83626E-05   -0.78841E-04 11399   0.364E-02    0.120E-01
RMM:   7    -0.116265717816E+04    0.17011E-04   -0.16678E-04  8415   0.159E-02    0.675E-02
RMM:   8    -0.116265719640E+04   -0.18243E-04   -0.78357E-05  7553   0.122E-02
   4 F= -.11626572E+04 E0= -.11626572E+04  d E =-.707536E-01  mag=     8.0000
       N       E                     dE             d eps       ncg     rms          rms(c)
DAV:   1    -0.116268181094E+04   -0.24633E-01   -0.40549E+00 12880   0.216E+00    0.729E-01
RMM:   2    -0.116269211087E+04   -0.10300E-01   -0.10726E-01 12299   0.410E-01    0.550E-01
RMM:   3    -0.116269244591E+04   -0.33504E-03   -0.73664E-03 12690   0.156E-01    0.381E-01
RMM:   4    -0.116269207652E+04    0.36938E-03   -0.19451E-03 12186   0.572E-02    0.260E-01
RMM:   5    -0.116269189306E+04    0.18346E-03   -0.10126E-03 10980   0.365E-02    0.122E-01
RMM:   6    -0.116269192104E+04   -0.27972E-04   -0.18725E-04  8169   0.205E-02    0.619E-02
RMM:   7    -0.116269194324E+04   -0.22201E-04   -0.81158E-05  7374   0.142E-02    0.397E-02
RMM:   8    -0.116269197327E+04   -0.30035E-04   -0.50325E-05  7166   0.113E-02
   5 F= -.11626920E+04 E0= -.11626920E+04  d E =-.347769E-01  mag=     8.0000
       N       E                     dE             d eps       ncg     rms          rms(c)
DAV:   1    -0.116270887143E+04   -0.16928E-01   -0.79220E+00 12672   0.301E+00    0.901E-01
RMM:   2    -0.116272957425E+04   -0.20703E-01   -0.19040E-01 12343   0.532E-01    0.606E-01
RMM:   3    -0.116273064823E+04   -0.10740E-02   -0.11966E-02 12447   0.216E-01    0.374E-01
RMM:   4    -0.116273046650E+04    0.18173E-03   -0.36624E-03 13925   0.729E-02    0.292E-01
RMM:   5    -0.116273023470E+04    0.23180E-03   -0.13191E-03 11339   0.412E-02    0.137E-01
RMM:   6    -0.116273027963E+04   -0.44932E-04   -0.24637E-04  8487   0.206E-02    0.596E-02
RMM:   7    -0.116273030877E+04   -0.29138E-04   -0.91214E-05  7441   0.142E-02    0.438E-02
RMM:   8    -0.116273034553E+04   -0.36762E-04   -0.56164E-05  7177   0.116E-02
   6 F= -.11627303E+04 E0= -.11627303E+04  d E =-.383723E-01  mag=     8.0000
       N       E                     dE             d eps       ncg     rms          rms(c)
DAV:   1    -0.116273711472E+04   -0.68059E-02   -0.57986E+00 12768   0.262E+00    0.787E-01
RMM:   2    -0.116275233135E+04   -0.15217E-01   -0.13696E-01 12356   0.466E-01    0.526E-01
RMM:   3    -0.116275321999E+04   -0.88864E-03   -0.85315E-03 12364   0.190E-01    0.306E-01
RMM:   4    -0.116275308001E+04    0.13999E-03   -0.29080E-03 14286   0.622E-02    0.215E-01
RMM:   5    -0.116275301841E+04    0.61600E-04   -0.94355E-04 10913   0.356E-02    0.134E-01
RMM:   6    -0.116275304463E+04   -0.26229E-04   -0.21959E-04  8171   0.206E-02    0.503E-02
RMM:   7    -0.116275308063E+04   -0.35999E-04   -0.86865E-05  7383   0.134E-02    0.405E-02
RMM:   8    -0.116275312099E+04   -0.40355E-04   -0.50742E-05  7090   0.114E-02
   7 F= -.11627531E+04 E0= -.11627531E+04  d E =-.227755E-01  mag=     8.0000
       N       E                     dE             d eps       ncg     rms          rms(c)
DAV:   1    -0.116275610676E+04   -0.30261E-02   -0.51272E+00 12752   0.256E+00    0.520E-01
RMM:   2    -0.116276762576E+04   -0.11519E-01   -0.12374E-01 12359   0.457E-01    0.339E-01
RMM:   3    -0.116276799447E+04   -0.36871E-03   -0.81346E-03 12519   0.188E-01    0.227E-01
RMM:   4    -0.116276787925E+04    0.11522E-03   -0.21939E-03 15135   0.553E-02    0.142E-01
RMM:   5    -0.116276790341E+04   -0.24163E-04   -0.72717E-04 10872   0.310E-02    0.123E-01
RMM:   6    -0.116276791760E+04   -0.14189E-04   -0.18409E-04  7909   0.196E-02    0.370E-02
RMM:   7    -0.116276796201E+04   -0.44403E-04   -0.81895E-05  7331   0.130E-02    0.310E-02
RMM:   8    -0.116276801144E+04   -0.49432E-04   -0.53049E-05  7053   0.113E-02
   8 F= -.11627680E+04 E0= -.11627680E+04  d E =-.148904E-01  mag=     8.0000
       N       E                     dE             d eps       ncg     rms          rms(c)
DAV:   1    -0.116276913532E+04   -0.11733E-02   -0.40202E+00 12768   0.228E+00    0.463E-01
RMM:   2    -0.116277833333E+04   -0.91980E-02   -0.97215E-02 12352   0.404E-01    0.299E-01
RMM:   3    -0.116277865542E+04   -0.32209E-03   -0.64013E-03 12425   0.169E-01    0.200E-01
RMM:   4    -0.116277860335E+04    0.52064E-04   -0.16984E-03 14293   0.501E-02    0.145E-01
RMM:   5    -0.116277859873E+04    0.46208E-05   -0.60427E-04 10155   0.294E-02    0.113E-01
RMM:   6    -0.116277864040E+04   -0.41665E-04   -0.18254E-04  7839   0.198E-02    0.377E-02
RMM:   7    -0.116277868512E+04   -0.44727E-04   -0.77952E-05  7280   0.133E-02    0.320E-02
RMM:   8    -0.116277873046E+04   -0.45336E-04   -0.47948E-05  6993   0.114E-02
   9 F= -.11627787E+04 E0= -.11627787E+04  d E =-.107190E-01  mag=     8.0000
       N       E                     dE             d eps       ncg     rms          rms(c)
DAV:   1    -0.116277851404E+04    0.17109E-03   -0.30088E+00 12768   0.199E+00    0.420E-01
RMM:   2    -0.116278562265E+04   -0.71086E-02   -0.71129E-02 12338   0.343E-01    0.259E-01
RMM:   3    -0.116278593135E+04   -0.30869E-03   -0.45171E-03 12250   0.147E-01    0.161E-01
RMM:   4    -0.116278590005E+04    0.31298E-04   -0.12310E-03 13249   0.405E-02    0.899E-02
RMM:   5    -0.116278596246E+04   -0.62410E-04   -0.39781E-04  9244   0.269E-02    0.555E-02
RMM:   6    -0.116278600713E+04   -0.44676E-04   -0.10616E-04  7318   0.165E-02    0.358E-02
RMM:   7    -0.116278604471E+04   -0.37576E-04   -0.59137E-05  7082   0.121E-02    0.310E-02
RMM:   8    -0.116278611560E+04   -0.70892E-04   -0.59978E-05  7018   0.131E-02
  10 F= -.11627861E+04 E0= -.11627861E+04  d E =-.738514E-02  mag=     8.0000
       N       E                     dE             d eps       ncg     rms          rms(c)
DAV:   1    -0.116278392679E+04    0.21179E-02   -0.34341E+00 12720   0.212E+00    0.444E-01
RMM:   2    -0.116279205490E+04   -0.81281E-02   -0.80446E-02 12338   0.364E-01    0.266E-01
RMM:   3    -0.116279241550E+04   -0.36060E-03   -0.51276E-03 12246   0.158E-01    0.163E-01
RMM:   4    -0.116279238174E+04    0.33767E-04   -0.13734E-03 13694   0.428E-02    0.934E-02
RMM:   5    -0.116279243929E+04   -0.57555E-04   -0.42943E-04  9544   0.267E-02    0.637E-02
RMM:   6    -0.116279248536E+04   -0.46072E-04   -0.11857E-04  7379   0.168E-02    0.379E-02
RMM:   7    -0.116279252148E+04   -0.36117E-04   -0.61496E-05  7093   0.124E-02    0.322E-02
RMM:   8    -0.116279257866E+04   -0.57175E-04   -0.52611E-05  6971   0.122E-02
  11 F= -.11627926E+04 E0= -.11627926E+04  d E =-.646305E-02  mag=     8.0000
       N       E                     dE             d eps       ncg     rms          rms(c)
DAV:   1    -0.116278731136E+04    0.52101E-02   -0.43130E+00 12704   0.238E+00    0.512E-01
RMM:   2    -0.116279776111E+04   -0.10450E-01   -0.10102E-01 12356   0.407E-01    0.299E-01
RMM:   3    -0.116279824176E+04   -0.48065E-03   -0.63451E-03 12290   0.175E-01    0.179E-01
RMM:   4    -0.116279818468E+04    0.57084E-04   -0.16696E-03 14439   0.469E-02    0.104E-01
RMM:   5    -0.116279822796E+04   -0.43283E-04   -0.51762E-04 10177   0.271E-02    0.791E-02
RMM:   6    -0.116279827103E+04   -0.43070E-04   -0.14518E-04  7569   0.178E-02    0.405E-02
RMM:   7    -0.116279830427E+04   -0.33240E-04   -0.68920E-05  7149   0.127E-02    0.326E-02
RMM:   8    -0.116279834854E+04   -0.44276E-04   -0.49964E-05  6959   0.117E-02
  12 F= -.11627983E+04 E0= -.11627983E+04  d E =-.576989E-02  mag=     8.0000
       N       E                     dE             d eps       ncg     rms          rms(c)
DAV:   1    -0.116279646848E+04    0.18358E-02   -0.22655E+00 12784   0.173E+00    0.365E-01
RMM:   2    -0.116280197251E+04   -0.55040E-02   -0.53571E-02 12371   0.296E-01    0.215E-01
RMM:   3    -0.116280221359E+04   -0.24108E-03   -0.33186E-03 12247   0.125E-01    0.130E-01
RMM:   4    -0.116280219869E+04    0.14903E-04   -0.87175E-04 12272   0.341E-02    0.780E-02
RMM:   5    -0.116280223771E+04   -0.39020E-04   -0.25651E-04  8305   0.230E-02    0.632E-02
RMM:   6    -0.116280227515E+04   -0.37445E-04   -0.98168E-05  7251   0.163E-02    0.338E-02
RMM:   7    -0.116280230203E+04   -0.26875E-04   -0.49462E-05  6967   0.114E-02    0.279E-02
RMM:   8    -0.116280233807E+04   -0.36042E-04   -0.37810E-05  6859   0.107E-02
  13 F= -.11628023E+04 E0= -.11628023E+04  d E =-.398953E-02  mag=     8.0000
       N       E                     dE             d eps       ncg     rms          rms(c)
DAV:   1    -0.116279972931E+04    0.25727E-02   -0.24502E+00 12768   0.180E+00    0.381E-01
RMM:   2    -0.116280568022E+04   -0.59509E-02   -0.57545E-02 12377   0.308E-01    0.222E-01
RMM:   3    -0.116280595913E+04   -0.27891E-03   -0.36384E-03 12242   0.131E-01    0.133E-01
RMM:   4    -0.116280593451E+04    0.24627E-04   -0.94358E-04 12347   0.355E-02    0.819E-02
RMM:   5    -0.116280595465E+04   -0.20139E-04   -0.27037E-04  8387   0.229E-02    0.689E-02
RMM:   6    -0.116280598271E+04   -0.28065E-04   -0.10280E-04  7269   0.166E-02    0.331E-02
RMM:   7    -0.116280600430E+04   -0.21589E-04   -0.48788E-05  6993   0.114E-02    0.252E-02
RMM:   8    -0.116280603007E+04   -0.25766E-04   -0.33443E-05  6822   0.102E-02
  14 F= -.11628060E+04 E0= -.11628060E+04  d E =-.369200E-02  mag=     8.0000
       N       E                     dE             d eps       ncg     rms          rms(c)
DAV:   1    -0.116280637392E+04   -0.36962E-03   -0.80565E-01 12968   0.104E+00    0.222E-01
RMM:   2    -0.116280833901E+04   -0.19651E-02   -0.19384E-02 12434   0.180E-01    0.132E-01
RMM:   3    -0.116280842426E+04   -0.85251E-04   -0.12019E-03 11549   0.747E-02    0.813E-02
RMM:   4    -0.116280842426E+04    0.25175E-08   -0.29114E-04  8379   0.216E-02    0.538E-02
RMM:   5    -0.116280844825E+04   -0.23994E-04   -0.93213E-05  7199   0.157E-02    0.501E-02
RMM:   6    -0.116280847123E+04   -0.22977E-04   -0.56031E-05  7016   0.130E-02    0.242E-02
RMM:   7    -0.116280848839E+04   -0.17160E-04   -0.28035E-05  6812   0.858E-03    0.216E-02
RMM:   8    -0.116280850152E+04   -0.13138E-04   -0.17757E-05  6717   0.721E-03
  15 F= -.11628085E+04 E0= -.11628085E+04  d E =-.247146E-02  mag=     8.0000
