       N       E                     dE             d eps       ncg     rms          rms(c)
DAV:   1     0.121053715284E+05    0.12105E+05   -0.42642E+05 12352   0.132E+03
DAV:   2     0.716011518967E+03   -0.11389E+05   -0.10174E+05 12312   0.380E+02
DAV:   3    -0.134659927580E+04   -0.20626E+04   -0.19852E+04 13224   0.168E+02
DAV:   4    -0.148947142753E+04   -0.14287E+03   -0.14037E+03 16280   0.470E+01
DAV:   5    -0.149898871459E+04   -0.95173E+01   -0.94672E+01 22120   0.112E+01    0.183E+02
RMM:   6    -0.116096875481E+04    0.33802E+03   -0.16445E+03 12567   0.363E+01    0.135E+02
RMM:   7    -0.114290079666E+04    0.18068E+02   -0.65295E+01 12797   0.125E+01    0.798E+01
RMM:   8    -0.114612500806E+04   -0.32242E+01   -0.20831E+01 14329   0.499E+00    0.421E+01
RMM:   9    -0.115048703408E+04   -0.43620E+01   -0.79562E+00 13186   0.338E+00    0.193E+01
RMM:  10    -0.115153179301E+04   -0.10448E+01   -0.16935E+00 14674   0.142E+00    0.121E+01
RMM:  11    -0.115267540440E+04   -0.11436E+01   -0.95731E-01 14512   0.101E+00    0.597E+00
RMM:  12    -0.115359761316E+04   -0.92221E+00   -0.69987E-01 14664   0.723E-01    0.385E+00
RMM:  13    -0.115422478987E+04   -0.62718E+00   -0.57706E-01 13056   0.752E-01    0.253E+00
RMM:  14    -0.115434375334E+04   -0.11896E+00   -0.20219E-01 14905   0.426E-01    0.111E+00
RMM:  15    -0.115436674069E+04   -0.22987E-01   -0.52233E-02 15857   0.202E-01    0.625E-01
RMM:  16    -0.115437521983E+04   -0.84791E-02   -0.21949E-02 15020   0.133E-01    0.466E-01
RMM:  17    -0.115437671668E+04   -0.14968E-02   -0.62495E-03 15462   0.753E-02    0.245E-01
RMM:  18    -0.115437716384E+04   -0.44717E-03   -0.24725E-03 13689   0.396E-02    0.119E-01
RMM:  19    -0.115437728376E+04   -0.11992E-03   -0.89449E-04 10379   0.244E-02    0.683E-02
RMM:  20    -0.115437736962E+04   -0.85858E-04   -0.57960E-04  9800   0.187E-02
   1 F= -.11543774E+04 E0= -.11543774E+04  d E =-.115438E+04  mag=    13.9956
       N       E                     dE             d eps       ncg     rms          rms(c)
DAV:   1    -0.109425469080E+04    0.60123E+02   -0.27534E+03 13696   0.415E+01    0.491E+01
RMM:   2    -0.116770118272E+04   -0.73446E+02   -0.55410E+02 16848   0.190E+01    0.784E+01
RMM:   3    -0.115461351789E+04    0.13088E+02   -0.47519E+01 12711   0.780E+00    0.269E+01
RMM:   4    -0.115321660818E+04    0.13969E+01   -0.13425E+01 13807   0.294E+00    0.191E+01
RMM:   5    -0.115230690573E+04    0.90970E+00   -0.66014E+00 13850   0.167E+00    0.157E+01
RMM:   6    -0.115231541600E+04   -0.85103E-02   -0.79403E-01 15505   0.662E-01    0.106E+01
RMM:   7    -0.115230382566E+04    0.11590E-01   -0.51719E-01 13459   0.677E-01    0.530E+00
RMM:   8    -0.115227610681E+04    0.27719E-01   -0.18494E-01 15149   0.312E-01    0.324E+00
RMM:   9    -0.115228744088E+04   -0.11334E-01   -0.80554E-02 16014   0.186E-01    0.213E+00
RMM:  10    -0.115230094655E+04   -0.13506E-01   -0.28913E-02 15017   0.146E-01    0.138E+00
RMM:  11    -0.115230206192E+04   -0.11154E-02   -0.22003E-02 15277   0.113E-01    0.484E-01
RMM:  12    -0.115230375075E+04   -0.16888E-02   -0.77335E-03 14959   0.618E-02    0.235E-01
RMM:  13    -0.115230512240E+04   -0.13717E-02   -0.20758E-03 13225   0.383E-02    0.180E-01
RMM:  14    -0.115230609432E+04   -0.97192E-03   -0.12748E-03 11555   0.316E-02    0.107E-01
RMM:  15    -0.115230694151E+04   -0.84719E-03   -0.10911E-03 10835   0.303E-02    0.988E-02
RMM:  16    -0.115230732758E+04   -0.38607E-03   -0.52956E-04  8786   0.197E-02    0.796E-02
RMM:  17    -0.115230773065E+04   -0.40307E-03   -0.42404E-04  8616   0.209E-02    0.592E-02
RMM:  18    -0.115230803080E+04   -0.30015E-03   -0.51577E-04  8602   0.225E-02    0.405E-02
RMM:  19    -0.115230813602E+04   -0.10521E-03   -0.25707E-04  7995   0.149E-02    0.286E-02
RMM:  20    -0.115230818526E+04   -0.49243E-04   -0.15895E-04  7708   0.125E-02
   2 F= -.11523082E+04 E0= -.11523082E+04  d E =0.206918E+01  mag=    14.0097
       N       E                     dE             d eps       ncg     rms          rms(c)
DAV:   1    -0.113197790460E+04    0.20330E+02   -0.92607E+02 12728   0.247E+01    0.276E+01
RMM:   2    -0.115396221756E+04   -0.21984E+02   -0.47561E+01 12535   0.750E+00    0.224E+01
RMM:   3    -0.115481739380E+04   -0.85518E+00   -0.28356E+00 12568   0.252E+00    0.117E+01
RMM:   4    -0.115473256865E+04    0.84825E-01   -0.97442E-01 13878   0.111E+00    0.859E+00
RMM:   5    -0.115475730360E+04   -0.24735E-01   -0.41584E-01 13571   0.600E-01    0.289E+00
RMM:   6    -0.115478172845E+04   -0.24425E-01   -0.70802E-02 15149   0.263E-01    0.158E+00
RMM:   7    -0.115478833739E+04   -0.66089E-02   -0.18333E-02 16972   0.125E-01    0.798E-01
RMM:   8    -0.115479562147E+04   -0.72841E-02   -0.77951E-03 15572   0.946E-02    0.419E-01
RMM:   9    -0.115480189375E+04   -0.62723E-02   -0.57045E-03 13975   0.843E-02    0.220E-01
RMM:  10    -0.115480509255E+04   -0.31988E-02   -0.33888E-03 13579   0.526E-02    0.181E-01
RMM:  11    -0.115480999855E+04   -0.49060E-02   -0.39545E-03 11795   0.739E-02    0.129E-01
RMM:  12    -0.115481377207E+04   -0.37735E-02   -0.58729E-03 11223   0.825E-02    0.100E-01
RMM:  13    -0.115481526425E+04   -0.14922E-02   -0.23384E-03 10435   0.396E-02    0.849E-02
RMM:  14    -0.115481676217E+04   -0.14979E-02   -0.15390E-03  9599   0.379E-02    0.701E-02
RMM:  15    -0.115481833293E+04   -0.15708E-02   -0.26227E-03  9713   0.519E-02    0.559E-02
RMM:  16    -0.115481925137E+04   -0.91844E-03   -0.18596E-03  9476   0.394E-02    0.465E-02
RMM:  17    -0.115481986633E+04   -0.61496E-03   -0.17589E-03  9451   0.421E-02    0.281E-02
RMM:  18    -0.115482010929E+04   -0.24296E-03   -0.10550E-03  9066   0.294E-02    0.212E-02
RMM:  19    -0.115482019571E+04   -0.86423E-04   -0.36066E-04  8223   0.171E-02
   3 F= -.11548202E+04 E0= -.11548202E+04  d E =-.251201E+01  mag=    14.0000
       N       E                     dE             d eps       ncg     rms          rms(c)
DAV:   1    -0.115500152586E+04   -0.18142E+00   -0.17807E+02 12792   0.131E+01    0.636E+00
RMM:   2    -0.115556478182E+04   -0.56326E+00   -0.56809E+00 12391   0.293E+00    0.574E+00
RMM:   3    -0.115561031991E+04   -0.45538E-01   -0.36682E-01 13185   0.989E-01    0.381E+00
RMM:   4    -0.115559834166E+04    0.11978E-01   -0.13960E-01 12918   0.402E-01    0.190E+00
RMM:   5    -0.115558637614E+04    0.11966E-01   -0.36892E-02 12675   0.239E-01    0.497E-01
RMM:   6    -0.115558618704E+04    0.18910E-03   -0.59499E-03 14618   0.712E-02    0.237E-01
RMM:   7    -0.115558600505E+04    0.18199E-03   -0.12896E-03 12892   0.305E-02    0.160E-01
RMM:   8    -0.115558610802E+04   -0.10298E-03   -0.79093E-04 10946   0.286E-02    0.678E-02
RMM:   9    -0.115558613964E+04   -0.31617E-04   -0.11720E-04  8297   0.147E-02
   4 F= -.11555861E+04 E0= -.11555861E+04  d E =-.765944E+00  mag=    14.0000
       N       E                     dE             d eps       ncg     rms          rms(c)
DAV:   1    -0.115571825612E+04   -0.13215E+00   -0.35328E+01 13136   0.508E+00    0.360E+00
RMM:   2    -0.115588310692E+04   -0.16485E+00   -0.85830E-01 12420   0.100E+00    0.228E+00
RMM:   3    -0.115590118764E+04   -0.18081E-01   -0.50880E-02 12528   0.337E-01    0.101E+00
RMM:   4    -0.115589563203E+04    0.55556E-02   -0.19460E-02 13310   0.134E-01    0.537E-01
RMM:   5    -0.115589391774E+04    0.17143E-02   -0.55349E-03 12288   0.748E-02    0.212E-01
RMM:   6    -0.115589391973E+04   -0.19846E-05   -0.11989E-03 12432   0.333E-02    0.140E-01
RMM:   7    -0.115589393664E+04   -0.16916E-04   -0.25135E-04  8720   0.167E-02    0.916E-02
RMM:   8    -0.115589397102E+04   -0.34374E-04   -0.11138E-04  8075   0.140E-02
   5 F= -.11558940E+04 E0= -.11558940E+04  d E =-.307831E+00  mag=    14.0000
       N       E                     dE             d eps       ncg     rms          rms(c)
DAV:   1    -0.115585427279E+04    0.39664E-01   -0.40555E+01 12704   0.509E+00    0.421E+00
RMM:   2    -0.115609723766E+04   -0.24296E+00   -0.91405E-01 12586   0.986E-01    0.263E+00
RMM:   3    -0.115613118613E+04   -0.33948E-01   -0.51229E-02 12685   0.322E-01    0.120E+00
RMM:   4    -0.115613000895E+04    0.11772E-02   -0.12411E-02 13395   0.107E-01    0.640E-01
RMM:   5    -0.115613007233E+04   -0.63386E-04   -0.43800E-03 12022   0.618E-02    0.183E-01
RMM:   6    -0.115613030534E+04   -0.23301E-03   -0.68782E-04  9871   0.287E-02    0.122E-01
RMM:   7    -0.115613044293E+04   -0.13759E-03   -0.20717E-04  8062   0.149E-02    0.676E-02
RMM:   8    -0.115613063411E+04   -0.19118E-03   -0.17949E-04  7869   0.142E-02    0.479E-02
RMM:   9    -0.115613071974E+04   -0.85637E-04   -0.83117E-05  7366   0.100E-02
   6 F= -.11561307E+04 E0= -.11561307E+04  d E =-.236749E+00  mag=    14.0000
       N       E                     dE             d eps       ncg     rms          rms(c)
DAV:   1    -0.115564373394E+04    0.48690E+00   -0.72655E+01 12520   0.717E+00    0.594E+00
RMM:   2    -0.115615877522E+04   -0.51504E+00   -0.17195E+00 12671   0.143E+00    0.428E+00
RMM:   3    -0.115622747369E+04   -0.68698E-01   -0.10798E-01 12932   0.461E-01    0.191E+00
RMM:   4    -0.115622486031E+04    0.26134E-02   -0.25388E-02 14077   0.160E-01    0.977E-01
RMM:   5    -0.115622515496E+04   -0.29465E-03   -0.10091E-02 13082   0.902E-02    0.311E-01
RMM:   6    -0.115622558047E+04   -0.42552E-03   -0.15472E-03 12033   0.415E-02    0.176E-01
RMM:   7    -0.115622583865E+04   -0.25818E-03   -0.41141E-04  9215   0.197E-02    0.104E-01
RMM:   8    -0.115622617464E+04   -0.33599E-03   -0.37866E-04  8597   0.201E-02    0.549E-02
RMM:   9    -0.115622631003E+04   -0.13538E-03   -0.15124E-04  7741   0.134E-02    0.421E-02
RMM:  10    -0.115622639312E+04   -0.83091E-04   -0.84507E-05  7387   0.104E-02
   7 F= -.11562264E+04 E0= -.11562264E+04  d E =-.956734E-01  mag=    14.0000
       N       E                     dE             d eps       ncg     rms          rms(c)
DAV:   1    -0.115622771340E+04   -0.14034E-02   -0.54580E+00 13056   0.251E+00    0.101E+00
RMM:   2    -0.115624768100E+04   -0.19968E-01   -0.12815E-01 12540   0.466E-01    0.601E-01
RMM:   3    -0.115624977347E+04   -0.20925E-02   -0.84641E-03 13266   0.147E-01    0.304E-01
RMM:   4    -0.115624940922E+04    0.36426E-03   -0.15209E-03 13574   0.446E-02    0.176E-01
RMM:   5    -0.115624932959E+04    0.79631E-04   -0.83221E-04 11084   0.287E-02    0.503E-02
RMM:   6    -0.115624933497E+04   -0.53799E-05   -0.76858E-05  7427   0.139E-02    0.330E-02
RMM:   7    -0.115624934092E+04   -0.59538E-05   -0.39721E-05  7198   0.795E-03    0.224E-02
RMM:   8    -0.115624934933E+04   -0.84140E-05   -0.28477E-05  7130   0.808E-03
   8 F= -.11562493E+04 E0= -.11562493E+04  d E =-.229562E-01  mag=    14.0000
       N       E                     dE             d eps       ncg     rms          rms(c)
DAV:   1    -0.115616715967E+04    0.82181E-01   -0.17614E+01 12672   0.348E+00    0.275E+00
RMM:   2    -0.115625245745E+04   -0.85298E-01   -0.44191E-01 12401   0.742E-01    0.173E+00
RMM:   3    -0.115626309381E+04   -0.10636E-01   -0.31316E-02 12881   0.212E-01    0.109E+00
RMM:   4    -0.115626246266E+04    0.63114E-03   -0.70083E-03 12605   0.808E-02    0.448E-01
RMM:   5    -0.115626262336E+04   -0.16070E-03   -0.20568E-03 11116   0.393E-02    0.104E-01
RMM:   6    -0.115626262838E+04   -0.50194E-05   -0.26611E-04  7910   0.168E-02    0.830E-02
RMM:   7    -0.115626265705E+04   -0.28672E-04   -0.11028E-04  7352   0.100E-02    0.423E-02
RMM:   8    -0.115626269726E+04   -0.40205E-04   -0.70649E-05  7270   0.969E-03
   9 F= -.11562627E+04 E0= -.11562627E+04  d E =-.133479E-01  mag=    14.0000
       N       E                     dE             d eps       ncg     rms          rms(c)
DAV:   1    -0.115620172579E+04    0.60931E-01   -0.18085E+01 12656   0.443E+00    0.219E+00
RMM:   2    -0.115628593515E+04   -0.84209E-01   -0.39499E-01 12883   0.780E-01    0.133E+00
RMM:   3    -0.115629625372E+04   -0.10319E-01   -0.20628E-02 13146   0.243E-01    0.579E-01
RMM:   4    -0.115629549874E+04    0.75498E-03   -0.46083E-03 15135   0.754E-02    0.307E-01
RMM:   5    -0.115629539026E+04    0.10848E-03   -0.22617E-03 12756   0.424E-02    0.777E-02
RMM:   6    -0.115629539315E+04   -0.28863E-05   -0.18043E-04  8292   0.198E-02    0.468E-02
RMM:   7    -0.115629539773E+04   -0.45853E-05   -0.94889E-05  7429   0.103E-02    0.301E-02
RMM:   8    -0.115629540472E+04   -0.69926E-05   -0.54030E-05  7234   0.933E-03
  10 F= -.11562954E+04 E0= -.11562954E+04  d E =-.327075E-01  mag=    14.0000
       N       E                     dE             d eps       ncg     rms          rms(c)
DAV:   1    -0.115626822403E+04    0.27174E-01   -0.11384E+01 12648   0.370E+00    0.128E+00
RMM:   2    -0.115630604918E+04   -0.37825E-01   -0.25705E-01 12947   0.637E-01    0.731E-01
RMM:   3    -0.115630907174E+04   -0.30226E-02   -0.12978E-02 13284   0.196E-01    0.340E-01
RMM:   4    -0.115630860168E+04    0.47006E-03   -0.28565E-03 15483   0.593E-02    0.188E-01
RMM:   5    -0.115630848978E+04    0.11190E-03   -0.13860E-03 12672   0.338E-02    0.511E-02
RMM:   6    -0.115630849852E+04   -0.87334E-05   -0.13263E-04  7878   0.169E-02    0.278E-02
RMM:   7    -0.115630850721E+04   -0.86927E-05   -0.77138E-05  7380   0.965E-03    0.197E-02
RMM:   8    -0.115630851544E+04   -0.82314E-05   -0.48548E-05  7231   0.912E-03
  11 F= -.11563085E+04 E0= -.11563085E+04  d E =-.131107E-01  mag=    14.0000
       N       E                     dE             d eps       ncg     rms          rms(c)
DAV:   1    -0.115630773962E+04    0.76759E-03   -0.40333E+00 12688   0.222E+00    0.560E-01
RMM:   2    -0.115631795994E+04   -0.10220E-01   -0.99068E-02 12671   0.411E-01    0.395E-01
RMM:   3    -0.115631838811E+04   -0.42817E-03   -0.65467E-03 13540   0.121E-01    0.274E-01
RMM:   4    -0.115631813749E+04    0.25062E-03   -0.98354E-04 13233   0.354E-02    0.154E-01
RMM:   5    -0.115631810102E+04    0.36475E-04   -0.49511E-04  9944   0.225E-02    0.393E-02
RMM:   6    -0.115631810710E+04   -0.60805E-05   -0.72013E-05  7289   0.132E-02    0.240E-02
RMM:   7    -0.115631811127E+04   -0.41760E-05   -0.45002E-05  7062   0.816E-03    0.153E-02
RMM:   8    -0.115631811272E+04   -0.14437E-05   -0.26318E-05  6929   0.788E-03
  12 F= -.11563181E+04 E0= -.11563181E+04  d E =-.959727E-02  mag=    14.0000
       N       E                     dE             d eps       ncg     rms          rms(c)
DAV:   1    -0.115631409616E+04    0.40151E-02   -0.46340E+00 12656   0.244E+00    0.513E-01
RMM:   2    -0.115632518624E+04   -0.11090E-01   -0.10982E-01 12822   0.419E-01    0.313E-01
RMM:   3    -0.115632535843E+04   -0.17219E-03   -0.55157E-03 13146   0.130E-01    0.193E-01
RMM:   4    -0.115632513685E+04    0.22158E-03   -0.12049E-03 14040   0.391E-02    0.109E-01
RMM:   5    -0.115632509117E+04    0.45688E-04   -0.48971E-04 10545   0.227E-02    0.324E-02
RMM:   6    -0.115632509666E+04   -0.54962E-05   -0.65496E-05  7305   0.129E-02    0.172E-02
RMM:   7    -0.115632510147E+04   -0.48050E-05   -0.50290E-05  7089   0.860E-03    0.128E-02
RMM:   8    -0.115632510366E+04   -0.21953E-05   -0.29244E-05  6873   0.790E-03
  13 F= -.11563251E+04 E0= -.11563251E+04  d E =-.699095E-02  mag=    14.0000
       N       E                     dE             d eps       ncg     rms          rms(c)
DAV:   1    -0.115631924935E+04    0.58521E-02   -0.49121E+00 12688   0.253E+00    0.533E-01
RMM:   2    -0.115633113372E+04   -0.11884E-01   -0.11699E-01 12753   0.431E-01    0.321E-01
RMM:   3    -0.115633133624E+04   -0.20252E-03   -0.57828E-03 12998   0.137E-01    0.191E-01
RMM:   4    -0.115633111371E+04    0.22253E-03   -0.13510E-03 14316   0.410E-02    0.104E-01
RMM:   5    -0.115633107362E+04    0.40090E-04   -0.50978E-04 10862   0.229E-02    0.346E-02
RMM:   6    -0.115633107913E+04   -0.55157E-05   -0.75511E-05  7294   0.131E-02    0.210E-02
RMM:   7    -0.115633108352E+04   -0.43833E-05   -0.48526E-05  7087   0.886E-03    0.134E-02
RMM:   8    -0.115633108618E+04   -0.26625E-05   -0.32707E-05  6907   0.811E-03
  14 F= -.11563311E+04 E0= -.11563311E+04  d E =-.598252E-02  mag=    14.0000
       N       E                     dE             d eps       ncg     rms          rms(c)
DAV:   1    -0.115632874979E+04    0.23337E-02   -0.22384E+00 12840   0.171E+00    0.360E-01
RMM:   2    -0.115633414860E+04   -0.53988E-02   -0.53676E-02 12688   0.292E-01    0.216E-01
RMM:   3    -0.115633423043E+04   -0.81836E-04   -0.26968E-03 12755   0.947E-02    0.129E-01
RMM:   4    -0.115633411954E+04    0.11089E-03   -0.63893E-04 11884   0.285E-02    0.691E-02
RMM:   5    -0.115633410266E+04    0.16882E-04   -0.21605E-04  8056   0.178E-02    0.257E-02
RMM:   6    -0.115633410729E+04   -0.46360E-05   -0.48947E-05  7077   0.115E-02    0.178E-02
RMM:   7    -0.115633411059E+04   -0.33032E-05   -0.33151E-05  6897   0.756E-03    0.106E-02
RMM:   8    -0.115633411252E+04   -0.19275E-05   -0.20444E-05  6787   0.715E-03
  15 F= -.11563341E+04 E0= -.11563341E+04  d E =-.302634E-02  mag=    14.0000
       N       E                     dE             d eps       ncg     rms          rms(c)
DAV:   1    -0.115633070435E+04    0.34062E-02   -0.25281E+00 12712   0.182E+00    0.350E-01
RMM:   2    -0.115633655853E+04   -0.58542E-02   -0.60458E-02 12722   0.310E-01    0.213E-01
RMM:   3    -0.115633659025E+04   -0.31716E-04   -0.30272E-03 12831   0.996E-02    0.133E-01
RMM:   4    -0.115633647173E+04    0.11852E-03   -0.70131E-04 12218   0.299E-02    0.738E-02
RMM:   5    -0.115633645235E+04    0.19380E-04   -0.24247E-04  8296   0.181E-02    0.246E-02
RMM:   6    -0.115633645662E+04   -0.42762E-05   -0.49499E-05  7102   0.115E-02    0.185E-02
RMM:   7    -0.115633645992E+04   -0.32919E-05   -0.32766E-05  6888   0.747E-03    0.104E-02
RMM:   8    -0.115633646164E+04   -0.17262E-05   -0.20078E-05  6772   0.710E-03
  16 F= -.11563365E+04 E0= -.11563365E+04  d E =-.234912E-02  mag=    14.0000
       N       E                     dE             d eps       ncg     rms          rms(c)
DAV:   1    -0.115633459182E+04    0.18681E-02   -0.12762E+00 12792   0.130E+00    0.269E-01
RMM:   2    -0.115633766236E+04   -0.30705E-02   -0.30928E-02 12847   0.222E-01    0.162E-01
RMM:   3    -0.115633768870E+04   -0.26332E-04   -0.15140E-03 12276   0.701E-02    0.969E-02
RMM:   4    -0.115633762604E+04    0.62656E-04   -0.32243E-04  8933   0.219E-02    0.531E-02
RMM:   5    -0.115633761481E+04    0.11225E-04   -0.12102E-04  7258   0.151E-02    0.186E-02
RMM:   6    -0.115633761928E+04   -0.44648E-05   -0.38210E-05  6999   0.999E-03    0.187E-02
RMM:   7    -0.115633762169E+04   -0.24160E-05   -0.23297E-05  6721   0.658E-03    0.860E-03
RMM:   8    -0.115633762305E+04   -0.13587E-05   -0.13987E-05  6458   0.609E-03
  17 F= -.11563376E+04 E0= -.11563376E+04  d E =-.116141E-02  mag=    14.0000
       N       E                     dE             d eps       ncg     rms          rms(c)
DAV:   1    -0.115633602474E+04    0.15970E-02   -0.97123E-01 12760   0.113E+00    0.219E-01
RMM:   2    -0.115633827507E+04   -0.22503E-02   -0.23400E-02 12854   0.192E-01    0.131E-01
RMM:   3    -0.115633826710E+04    0.79701E-05   -0.11026E-03 11587   0.602E-02    0.807E-02
RMM:   4    -0.115633821635E+04    0.50745E-04   -0.23503E-04  7940   0.193E-02    0.434E-02
RMM:   5    -0.115633821164E+04    0.47148E-05   -0.87929E-05  7111   0.133E-02    0.171E-02
RMM:   6    -0.115633821535E+04   -0.37166E-05   -0.31390E-05  6945   0.867E-03    0.141E-02
RMM:   7    -0.115633821731E+04   -0.19571E-05   -0.18659E-05  6641   0.594E-03    0.790E-03
RMM:   8    -0.115633821845E+04   -0.11429E-05   -0.11342E-05  6154   0.524E-03
  18 F= -.11563382E+04 E0= -.11563382E+04  d E =-.595401E-03  mag=    14.0000
       N       E                     dE             d eps       ncg     rms          rms(c)
DAV:   1    -0.115633600886E+04    0.22085E-02   -0.10569E+00 12720   0.118E+00    0.232E-01
RMM:   2    -0.115633847806E+04   -0.24692E-02   -0.25422E-02 12876   0.201E-01    0.137E-01
RMM:   3    -0.115633847757E+04    0.49401E-06   -0.11964E-03 11861   0.624E-02    0.839E-02
RMM:   4    -0.115633842228E+04    0.55285E-04   -0.25048E-04  8058   0.199E-02    0.440E-02
RMM:   5    -0.115633841827E+04    0.40092E-05   -0.91064E-05  7146   0.135E-02    0.166E-02
RMM:   6    -0.115633842210E+04   -0.38212E-05   -0.31848E-05  6961   0.878E-03    0.138E-02
RMM:   7    -0.115633842413E+04   -0.20374E-05   -0.18995E-05  6640   0.600E-03    0.737E-03
RMM:   8    -0.115633842536E+04   -0.12220E-05   -0.11476E-05  6083   0.528E-03
  19 F= -.11563384E+04 E0= -.11563384E+04  d E =-.206900E-03  mag=    14.0000
       N       E                     dE             d eps       ncg     rms          rms(c)
DAV:   1    -0.115633629859E+04    0.21255E-02   -0.88570E-01 12736   0.108E+00    0.211E-01
RMM:   2    -0.115633837142E+04   -0.20728E-02   -0.21396E-02 12904   0.184E-01    0.126E-01
RMM:   3    -0.115633836565E+04    0.57732E-05   -0.98444E-04 11319   0.565E-02    0.775E-02
RMM:   4    -0.115633831805E+04    0.47594E-04   -0.19806E-04  7625   0.185E-02    0.417E-02
RMM:   5    -0.115633831381E+04    0.42400E-05   -0.84216E-05  7111   0.128E-02    0.158E-02
RMM:   6    -0.115633831731E+04   -0.35037E-05   -0.29482E-05  6916   0.843E-03    0.152E-02
RMM:   7    -0.115633831913E+04   -0.18164E-05   -0.17260E-05  6595   0.568E-03    0.746E-03
RMM:   8    -0.115633832018E+04   -0.10469E-05   -0.10322E-05  5919   0.507E-03
  20 F= -.11563383E+04 E0= -.11563383E+04  d E =0.105177E-03  mag=    14.0000
       N       E                     dE             d eps       ncg     rms          rms(c)
DAV:   1    -0.115633649848E+04    0.18207E-02   -0.62109E-01 12752   0.903E-01    0.179E-01
RMM:   2    -0.115633796464E+04   -0.14662E-02   -0.15059E-02 12784   0.155E-01    0.108E-01
RMM:   3    -0.115633797090E+04   -0.62606E-05   -0.72437E-04 10491   0.488E-02    0.661E-02
RMM:   4    -0.115633793671E+04    0.34189E-04   -0.14310E-04  7306   0.162E-02    0.354E-02
RMM:   5    -0.115633793496E+04    0.17537E-05   -0.62964E-05  7057   0.110E-02    0.190E-02
RMM:   6    -0.115633793770E+04   -0.27385E-05   -0.23095E-05  6859   0.742E-03    0.115E-02
RMM:   7    -0.115633793921E+04   -0.15106E-05   -0.13578E-05  6425   0.502E-03    0.684E-03
RMM:   8    -0.115633794009E+04   -0.88260E-06   -0.79542E-06  5637   0.448E-03
  21 F= -.11563379E+04 E0= -.11563379E+04  d E =0.380087E-03  mag=    14.0000
       N       E                     dE             d eps       ncg     rms          rms(c)
DAV:   1    -0.115633647559E+04    0.14636E-02   -0.43838E-01 12848   0.757E-01    0.152E-01
RMM:   2    -0.115633751169E+04   -0.10361E-02   -0.10558E-02 12796   0.129E-01    0.909E-02
RMM:   3    -0.115633751408E+04   -0.23913E-05   -0.48656E-04  9269   0.409E-02    0.548E-02
RMM:   4    -0.115633749235E+04    0.21726E-04   -0.10255E-04  7155   0.140E-02    0.294E-02
RMM:   5    -0.115633749141E+04    0.94374E-06   -0.46396E-05  6976   0.947E-03    0.151E-02
RMM:   6    -0.115633749352E+04   -0.21084E-05   -0.17715E-05  6754   0.646E-03    0.986E-03
RMM:   7    -0.115633749467E+04   -0.11477E-05   -0.10183E-05  5906   0.446E-03    0.526E-03
RMM:   8    -0.115633749534E+04   -0.67614E-06   -0.59341E-06  5073   0.393E-03
  22 F= -.11563375E+04 E0= -.11563375E+04  d E =0.444748E-03  mag=    14.0000
       N       E                     dE             d eps       ncg     rms          rms(c)
DAV:   1    -0.115633651614E+04    0.97852E-03   -0.22385E-01 12848   0.542E-01    0.113E-01
RMM:   2    -0.115633704966E+04   -0.53352E-03   -0.54082E-03 12707   0.929E-02    0.671E-02
RMM:   3    -0.115633705131E+04   -0.16448E-05   -0.23869E-04  7964   0.295E-02    0.399E-02
RMM:   4    -0.115633704129E+04    0.10018E-04   -0.61105E-05  7018   0.109E-02    0.222E-02
RMM:   5    -0.115633704086E+04    0.42688E-06   -0.26631E-05  6817   0.724E-03    0.146E-02
RMM:   6    -0.115633704217E+04   -0.13058E-05   -0.11047E-05  6182   0.509E-03    0.694E-03
RMM:   7    -0.115633704288E+04   -0.70986E-06   -0.60337E-06  5215   0.367E-03    0.410E-03
RMM:   8    -0.115633704329E+04   -0.41563E-06   -0.34028E-06  4393   0.317E-03
  23 F= -.11563370E+04 E0= -.11563370E+04  d E =0.452052E-03  mag=    14.0000
       N       E                     dE             d eps       ncg     rms          rms(c)
DAV:   1    -0.115633610207E+04    0.94081E-03   -0.21985E-01 12736   0.538E-01    0.107E-01
RMM:   2    -0.115633662213E+04   -0.52006E-03   -0.53172E-03 12828   0.922E-02    0.634E-02
RMM:   3    -0.115633662090E+04    0.12295E-05   -0.22524E-04  7895   0.285E-02    0.382E-02
RMM:   4    -0.115633661165E+04    0.92515E-05   -0.56986E-05  6998   0.107E-02    0.213E-02
RMM:   5    -0.115633661155E+04    0.97949E-07   -0.25590E-05  6790   0.705E-03    0.121E-02
RMM:   6    -0.115633661277E+04   -0.12232E-05   -0.10010E-05  5964   0.497E-03    0.620E-03
RMM:   7    -0.115633661343E+04   -0.65699E-06   -0.55727E-06  5079   0.350E-03    0.390E-03
RMM:   8    -0.115633661380E+04   -0.36883E-06   -0.29930E-06  4259   0.313E-03
  24 F= -.11563366E+04 E0= -.11563366E+04  d E =0.429494E-03  mag=    14.0000
