       N       E                     dE             d eps       ncg     rms          rms(c)
DAV:   1     0.118117388305E+05    0.11812E+05   -0.41779E+05  6168   0.130E+03
DAV:   2     0.621972020375E+03   -0.11190E+05   -0.99985E+04  6144   0.372E+02
DAV:   3    -0.136871470340E+04   -0.19907E+04   -0.19184E+04  6600   0.163E+02
DAV:   4    -0.149884422242E+04   -0.13013E+03   -0.12782E+03  8152   0.431E+01
DAV:   5    -0.150676700043E+04   -0.79228E+01   -0.78923E+01 11032   0.913E+00    0.182E+02
RMM:   6    -0.116748941418E+04    0.33928E+03   -0.15811E+03  6250   0.340E+01    0.965E+01
RMM:   7    -0.115499250293E+04    0.12497E+02   -0.64508E+01  6382   0.977E+00    0.594E+01
RMM:   8    -0.116814060889E+04   -0.13148E+02   -0.44454E+01  6282   0.690E+00    0.332E+01
RMM:   9    -0.116868766922E+04   -0.54706E+00   -0.83697E+00  6348   0.298E+00    0.174E+01
RMM:  10    -0.116307586909E+04    0.56118E+01   -0.47482E+00  6357   0.201E+00    0.122E+01
RMM:  11    -0.116090299134E+04    0.21729E+01   -0.89956E+00  6211   0.238E+00    0.735E+00
RMM:  12    -0.116210718051E+04   -0.12042E+01   -0.27987E+00  6794   0.105E+00    0.108E+01
RMM:  13    -0.116164644415E+04    0.46074E+00   -0.69844E-01  6329   0.625E-01    0.423E+00
RMM:  14    -0.116229964715E+04   -0.65320E+00   -0.38436E-01  6159   0.548E-01    0.342E+00
RMM:  15    -0.116249473773E+04   -0.19509E+00   -0.24029E-01  6261   0.436E-01    0.213E+00
RMM:  16    -0.116265385309E+04   -0.15912E+00   -0.13424E-01  6267   0.338E-01    0.165E+00
RMM:  17    -0.116271311021E+04   -0.59257E-01   -0.69690E-02  6326   0.245E-01    0.142E+00
RMM:  18    -0.116273910303E+04   -0.25993E-01   -0.49342E-02  6332   0.200E-01    0.974E-01
RMM:  19    -0.116275410750E+04   -0.15004E-01   -0.37145E-02  6270   0.174E-01    0.468E-01
RMM:  20    -0.116275827594E+04   -0.41684E-02   -0.11163E-02  6555   0.952E-02    0.308E-01
RMM:  21    -0.116275858143E+04   -0.30549E-03   -0.31754E-03  6567   0.461E-02    0.170E-01
RMM:  22    -0.116275895521E+04   -0.37378E-03   -0.10289E-03  5777   0.278E-02    0.141E-01
RMM:  23    -0.116275903238E+04   -0.77173E-04   -0.71266E-04  5496   0.227E-02
   1 F= -.11627590E+04 E0= -.11627548E+04  d E =-.116276E+04  mag=     3.9968
       N       E                     dE             d eps       ncg     rms          rms(c)
DAV:   1    -0.114453503519E+04    0.18224E+02   -0.14902E+03  6352   0.362E+01    0.267E+01
RMM:   2    -0.116414769069E+04   -0.19613E+02   -0.22632E+02  6430   0.101E+01    0.150E+01
RMM:   3    -0.116040942505E+04    0.37383E+01   -0.88615E+00  6337   0.253E+00    0.105E+01
RMM:   4    -0.116044205788E+04   -0.32633E-01   -0.71828E+00  6212   0.119E+00    0.977E+00
RMM:   5    -0.115973898089E+04    0.70308E+00   -0.79044E-01  6199   0.622E-01    0.480E+00
RMM:   6    -0.115969262620E+04    0.46355E-01   -0.42871E-01  6232   0.441E-01    0.238E+00
RMM:   7    -0.115965542297E+04    0.37203E-01   -0.44232E-01  6279   0.350E-01    0.116E+00
RMM:   8    -0.115964625934E+04    0.91636E-02   -0.27679E-02  6739   0.135E-01    0.633E-01
RMM:   9    -0.115965003804E+04   -0.37787E-02   -0.14495E-02  6958   0.771E-02    0.382E-01
RMM:  10    -0.115965070926E+04   -0.67122E-03   -0.39581E-03  6550   0.507E-02    0.180E-01
RMM:  11    -0.115965102431E+04   -0.31505E-03   -0.16187E-03  6432   0.272E-02    0.106E-01
RMM:  12    -0.115965144795E+04   -0.42364E-03   -0.80150E-04  5580   0.200E-02    0.829E-02
RMM:  13    -0.115965174305E+04   -0.29510E-03   -0.40044E-04  4820   0.177E-02    0.460E-02
RMM:  14    -0.115965186356E+04   -0.12051E-03   -0.24465E-04  4388   0.129E-02    0.290E-02
RMM:  15    -0.115965190847E+04   -0.44904E-04   -0.97140E-05  4043   0.801E-03
   2 F= -.11596519E+04 E0= -.11596476E+04  d E =0.310712E+01  mag=     3.9989
       N       E                     dE             d eps       ncg     rms          rms(c)
DAV:   1    -0.116138275607E+04   -0.17309E+01   -0.51119E+02  6328   0.173E+01    0.170E+01
RMM:   2    -0.116388479134E+04   -0.25020E+01   -0.27922E+01  6145   0.509E+00    0.181E+01
RMM:   3    -0.116354033790E+04    0.34445E+00   -0.20188E+00  6164   0.134E+00    0.120E+01
RMM:   4    -0.116310897326E+04    0.43136E+00   -0.12248E+00  6127   0.908E-01    0.474E+00
RMM:   5    -0.116288483602E+04    0.22414E+00   -0.48499E-01  6127   0.646E-01    0.203E+00
RMM:   6    -0.116281728336E+04    0.67553E-01   -0.91754E-02  6166   0.278E-01    0.145E+00
RMM:   7    -0.116280465092E+04    0.12632E-01   -0.23129E-02  6742   0.123E-01    0.864E-01
RMM:   8    -0.116283604869E+04   -0.31398E-01   -0.21541E-02  6127   0.129E-01    0.166E+00
RMM:   9    -0.116283535436E+04    0.69432E-03   -0.29349E-03  7579   0.383E-02    0.169E+00
RMM:  10    -0.116284656077E+04   -0.11206E-01   -0.16892E-03  6174   0.353E-02    0.202E+00
RMM:  11    -0.116284160331E+04    0.49575E-02   -0.43258E-04  5239   0.182E-02    0.187E+00
RMM:  12    -0.116282856871E+04    0.13035E-01   -0.10557E-02  6057   0.100E-01    0.149E+00
RMM:  13    -0.116282852667E+04    0.42036E-04   -0.47703E-03  5804   0.704E-02    0.190E+00
RMM:  14    -0.116282889279E+04   -0.36611E-03   -0.46475E-03  5999   0.604E-02    0.209E+00
RMM:  15    -0.116282535820E+04    0.35346E-02   -0.11918E-03  5413   0.320E-02    0.161E+00
RMM:  16    -0.116282140128E+04    0.39569E-02   -0.10263E-02  6055   0.901E-02    0.898E-01
RMM:  17    -0.116282015916E+04    0.12421E-02   -0.28848E-03  5692   0.498E-02    0.812E-01
RMM:  18    -0.116281775061E+04    0.24086E-02   -0.17080E-03  5769   0.346E-02    0.595E-01
RMM:  19    -0.116281556506E+04    0.21855E-02   -0.20662E-03  5639   0.383E-02    0.304E-01
RMM:  20    -0.116281513529E+04    0.42977E-03   -0.18435E-03  5784   0.336E-02    0.119E-01
RMM:  21    -0.116281543813E+04   -0.30284E-03   -0.16531E-04  4233   0.141E-02    0.122E-01
RMM:  22    -0.116281536926E+04    0.68866E-04   -0.15139E-04  4103   0.128E-02
   3 F= -.11628154E+04 E0= -.11628090E+04  d E =-.316346E+01  mag=     3.9673
       N       E                     dE             d eps       ncg     rms          rms(c)
DAV:   1    -0.116314822011E+04   -0.33278E+00   -0.21602E+02  6304   0.153E+01    0.491E+00
RMM:   2    -0.116390510455E+04   -0.75688E+00   -0.79609E+00  6144   0.295E+00    0.617E+00
RMM:   3    -0.116382814037E+04    0.76964E-01   -0.26173E-01  6528   0.557E-01    0.480E+00
RMM:   4    -0.116381744786E+04    0.10693E-01   -0.14198E-01  6108   0.335E-01    0.272E+00
RMM:   5    -0.116378470965E+04    0.32738E-01   -0.76294E-02  6100   0.248E-01    0.741E-01
RMM:   6    -0.116378068906E+04    0.40206E-02   -0.10450E-02  6143   0.873E-02    0.468E-01
RMM:   7    -0.116377918835E+04    0.15007E-02   -0.22342E-03  5732   0.378E-02    0.248E-01
RMM:   8    -0.116377894079E+04    0.24756E-03   -0.15199E-03  5530   0.346E-02    0.854E-02
RMM:   9    -0.116377897515E+04   -0.34358E-04   -0.32548E-04  4595   0.179E-02
   4 F= -.11637790E+04 E0= -.11637733E+04  d E =-.963606E+00  mag=     3.9925
       N       E                     dE             d eps       ncg     rms          rms(c)
DAV:   1    -0.116406365642E+04   -0.28472E+00   -0.54059E+01  6536   0.735E+00    0.238E+00
RMM:   2    -0.116418579682E+04   -0.12214E+00   -0.15151E+00  6144   0.133E+00    0.212E+00
RMM:   3    -0.116417312897E+04    0.12668E-01   -0.70377E-02  6371   0.275E-01    0.124E+00
RMM:   4    -0.116416764378E+04    0.54852E-02   -0.30868E-02  6074   0.156E-01    0.678E-01
RMM:   5    -0.116416444707E+04    0.31967E-02   -0.73364E-03  6106   0.800E-02    0.213E-01
RMM:   6    -0.116416471007E+04   -0.26300E-03   -0.12546E-03  5897   0.309E-02    0.151E-01
RMM:   7    -0.116416476126E+04   -0.51189E-04   -0.41859E-04  5078   0.177E-02    0.104E-01
RMM:   8    -0.116416484208E+04   -0.80820E-04   -0.17490E-04  4263   0.130E-02
   5 F= -.11641648E+04 E0= -.11641597E+04  d E =-.385867E+00  mag=     3.9944
       N       E                     dE             d eps       ncg     rms          rms(c)
DAV:   1    -0.116435146949E+04   -0.18671E+00   -0.38296E+01  6464   0.602E+00    0.208E+00
RMM:   2    -0.116444135446E+04   -0.89885E-01   -0.10499E+00  6144   0.107E+00    0.172E+00
RMM:   3    -0.116443362352E+04    0.77309E-02   -0.54383E-02  6402   0.231E-01    0.980E-01
RMM:   4    -0.116443019430E+04    0.34292E-02   -0.19262E-02  6142   0.120E-01    0.470E-01
RMM:   5    -0.116442909055E+04    0.11037E-02   -0.46413E-03  6142   0.603E-02    0.201E-01
RMM:   6    -0.116442913506E+04   -0.44504E-04   -0.10014E-03  5755   0.277E-02    0.113E-01
RMM:   7    -0.116442917592E+04   -0.40863E-04   -0.29631E-04  4736   0.152E-02    0.698E-02
RMM:   8    -0.116442922728E+04   -0.51356E-04   -0.12098E-04  4101   0.110E-02
   6 F= -.11644292E+04 E0= -.11644242E+04  d E =-.264385E+00  mag=     3.9926
       N       E                     dE             d eps       ncg     rms          rms(c)
DAV:   1    -0.116447984291E+04   -0.50667E-01   -0.33095E+00  6672   0.185E+00    0.622E-01
RMM:   2    -0.116448747063E+04   -0.76277E-02   -0.87184E-02  6136   0.323E-01    0.492E-01
RMM:   3    -0.116448693251E+04    0.53812E-03   -0.45711E-03  6332   0.706E-02    0.287E-01
RMM:   4    -0.116448672932E+04    0.20319E-03   -0.15417E-03  5639   0.347E-02    0.127E-01
RMM:   5    -0.116448667970E+04    0.49626E-04   -0.40052E-04  5041   0.181E-02    0.602E-02
RMM:   6    -0.116448668564E+04   -0.59460E-05   -0.82962E-05  3871   0.935E-03    0.326E-02
RMM:   7    -0.116448669076E+04   -0.51208E-05   -0.31975E-05  3590   0.536E-03    0.200E-02
RMM:   8    -0.116448669812E+04   -0.73575E-05   -0.18727E-05  3451   0.468E-03
   7 F= -.11644867E+04 E0= -.11644816E+04  d E =-.574708E-01  mag=     3.9917
       N       E                     dE             d eps       ncg     rms          rms(c)
DAV:   1    -0.116453865965E+04   -0.51969E-01   -0.18011E+01  6328   0.447E+00    0.138E+00
RMM:   2    -0.116458284094E+04   -0.44181E-01   -0.49710E-01  6144   0.797E-01    0.113E+00
RMM:   3    -0.116458022041E+04    0.26205E-02   -0.24423E-02  6568   0.173E-01    0.706E-01
RMM:   4    -0.116457895287E+04    0.12675E-02   -0.80290E-03  6302   0.804E-02    0.318E-01
RMM:   5    -0.116457863410E+04    0.31877E-03   -0.22235E-03  6070   0.406E-02    0.117E-01
RMM:   6    -0.116457862169E+04    0.12408E-04   -0.41811E-04  5127   0.188E-02    0.669E-02
RMM:   7    -0.116457863417E+04   -0.12475E-04   -0.12981E-04  3987   0.103E-02    0.399E-02
RMM:   8    -0.116457865045E+04   -0.16282E-04   -0.63938E-05  3691   0.818E-03
   8 F= -.11645787E+04 E0= -.11645736E+04  d E =-.919523E-01  mag=     3.9904
       N       E                     dE             d eps       ncg     rms          rms(c)
DAV:   1    -0.116458262293E+04   -0.39888E-02   -0.16048E+01  6384   0.429E+00    0.134E+00
RMM:   2    -0.116462167846E+04   -0.39056E-01   -0.46961E-01  6144   0.795E-01    0.123E+00
RMM:   3    -0.116461880042E+04    0.28780E-02   -0.21472E-02  6687   0.168E-01    0.850E-01
RMM:   4    -0.116461751866E+04    0.12818E-02   -0.92395E-03  6308   0.873E-02    0.389E-01
RMM:   5    -0.116461674979E+04    0.76886E-03   -0.26088E-03  6191   0.442E-02    0.100E-01
RMM:   6    -0.116461671825E+04    0.31543E-04   -0.33342E-04  4901   0.180E-02    0.673E-02
RMM:   7    -0.116461672371E+04   -0.54635E-05   -0.12068E-04  3940   0.101E-02    0.370E-02
RMM:   8    -0.116461673238E+04   -0.86651E-05   -0.63340E-05  3689   0.823E-03
   9 F= -.11646167E+04 E0= -.11646118E+04  d E =-.380819E-01  mag=     3.9896
       N       E                     dE             d eps       ncg     rms          rms(c)
DAV:   1    -0.116462349335E+04   -0.67696E-02   -0.35528E+00  6496   0.217E+00    0.396E-01
RMM:   2    -0.116463133652E+04   -0.78432E-02   -0.90412E-02  6146   0.359E-01    0.280E-01
RMM:   3    -0.116463109581E+04    0.24071E-03   -0.37684E-03  6291   0.859E-02    0.188E-01
RMM:   4    -0.116463088628E+04    0.20953E-03   -0.12404E-03  6095   0.331E-02    0.959E-02
RMM:   5    -0.116463081778E+04    0.68496E-04   -0.27482E-04  4771   0.159E-02    0.264E-02
RMM:   6    -0.116463082138E+04   -0.35963E-05   -0.45134E-05  3622   0.809E-03    0.161E-02
RMM:   7    -0.116463082496E+04   -0.35821E-05   -0.37970E-05  3542   0.621E-03    0.120E-02
RMM:   8    -0.116463082693E+04   -0.19705E-05   -0.20892E-05  3406   0.482E-03
  10 F= -.11646308E+04 E0= -.11646260E+04  d E =-.140946E-01  mag=     3.9893
       N       E                     dE             d eps       ncg     rms          rms(c)
DAV:   1    -0.116463182554E+04   -0.10006E-02   -0.66616E+00  6424   0.296E+00    0.523E-01
RMM:   2    -0.116464660066E+04   -0.14775E-01   -0.16543E-01  6147   0.483E-01    0.361E-01
RMM:   3    -0.116464624414E+04    0.35652E-03   -0.68209E-03  6248   0.117E-01    0.242E-01
RMM:   4    -0.116464587692E+04    0.36722E-03   -0.20685E-03  6564   0.425E-02    0.111E-01
RMM:   5    -0.116464581306E+04    0.63865E-04   -0.47310E-04  5758   0.192E-02    0.322E-02
RMM:   6    -0.116464581567E+04   -0.26087E-05   -0.70631E-05  3765   0.923E-03    0.205E-02
RMM:   7    -0.116464582003E+04   -0.43658E-05   -0.52712E-05  3627   0.690E-03    0.126E-02
RMM:   8    -0.116464582309E+04   -0.30607E-05   -0.31620E-05  3505   0.595E-03
  11 F= -.11646458E+04 E0= -.11646410E+04  d E =-.149962E-01  mag=     3.9892
       N       E                     dE             d eps       ncg     rms          rms(c)
DAV:   1    -0.116464678587E+04   -0.96584E-03   -0.47416E+00  6408   0.248E+00    0.424E-01
RMM:   2    -0.116465743316E+04   -0.10647E-01   -0.11796E-01  6147   0.408E-01    0.306E-01
RMM:   3    -0.116465716276E+04    0.27041E-03   -0.48829E-03  6221   0.977E-02    0.206E-01
RMM:   4    -0.116465692617E+04    0.23659E-03   -0.13779E-03  6404   0.349E-02    0.122E-01
RMM:   5    -0.116465683311E+04    0.93055E-04   -0.45829E-04  5692   0.192E-02    0.278E-02
RMM:   6    -0.116465683539E+04   -0.22718E-05   -0.49726E-05  3658   0.855E-03    0.189E-02
RMM:   7    -0.116465683883E+04   -0.34442E-05   -0.47374E-05  3542   0.652E-03    0.114E-02
RMM:   8    -0.116465684098E+04   -0.21540E-05   -0.27320E-05  3424   0.544E-03
  12 F= -.11646568E+04 E0= -.11646520E+04  d E =-.110179E-01  mag=     3.9892
       N       E                     dE             d eps       ncg     rms          rms(c)
DAV:   1    -0.116465452998E+04    0.23088E-02   -0.50544E+00  6416   0.257E+00    0.426E-01
RMM:   2    -0.116466600480E+04   -0.11475E-01   -0.12501E-01  6146   0.420E-01    0.284E-01
RMM:   3    -0.116466574052E+04    0.26428E-03   -0.51077E-03  6191   0.101E-01    0.190E-01
RMM:   4    -0.116466550419E+04    0.23632E-03   -0.14181E-03  6430   0.355E-02    0.106E-01
RMM:   5    -0.116466543259E+04    0.71606E-04   -0.39318E-04  5562   0.180E-02    0.240E-02
RMM:   6    -0.116466543492E+04   -0.23355E-05   -0.38244E-05  3625   0.841E-03    0.158E-02
RMM:   7    -0.116466543937E+04   -0.44495E-05   -0.55039E-05  3538   0.683E-03    0.976E-03
RMM:   8    -0.116466544195E+04   -0.25791E-05   -0.32155E-05  3421   0.555E-03
  13 F= -.11646654E+04 E0= -.11646606E+04  d E =-.860096E-02  mag=     3.9892
       N       E                     dE             d eps       ncg     rms          rms(c)
DAV:   1    -0.116466308096E+04    0.23584E-02   -0.38192E+00  6424   0.223E+00    0.367E-01
RMM:   2    -0.116467173834E+04   -0.86574E-02   -0.93936E-02  6146   0.364E-01    0.237E-01
RMM:   3    -0.116467153481E+04    0.20352E-03   -0.38501E-03  6194   0.879E-02    0.158E-01
RMM:   4    -0.116467134938E+04    0.18543E-03   -0.10690E-03  6327   0.309E-02    0.834E-02
RMM:   5    -0.116467130770E+04    0.41681E-04   -0.26928E-04  4865   0.155E-02    0.223E-02
RMM:   6    -0.116467131114E+04   -0.34408E-05   -0.33559E-05  3570   0.798E-03    0.137E-02
RMM:   7    -0.116467131479E+04   -0.36539E-05   -0.43623E-05  3470   0.637E-03    0.988E-03
RMM:   8    -0.116467131715E+04   -0.23598E-05   -0.27487E-05  3349   0.504E-03
  14 F= -.11646713E+04 E0= -.11646664E+04  d E =-.587521E-02  mag=     3.9892
       N       E                     dE             d eps       ncg     rms          rms(c)
DAV:   1    -0.116466934450E+04    0.19703E-02   -0.28643E+00  6400   0.193E+00    0.318E-01
RMM:   2    -0.116467581478E+04   -0.64703E-02   -0.70275E-02  6147   0.315E-01    0.204E-01
RMM:   3    -0.116467565671E+04    0.15807E-03   -0.28973E-03  6176   0.764E-02    0.135E-01
RMM:   4    -0.116467551314E+04    0.14357E-03   -0.80362E-04  6211   0.268E-02    0.685E-02
RMM:   5    -0.116467548681E+04    0.26336E-04   -0.18662E-04  4182   0.134E-02    0.212E-02
RMM:   6    -0.116467549119E+04   -0.43851E-05   -0.37302E-05  3542   0.757E-03    0.127E-02
RMM:   7    -0.116467549400E+04   -0.28094E-05   -0.31091E-05  3425   0.579E-03    0.103E-02
RMM:   8    -0.116467549590E+04   -0.18991E-05   -0.19836E-05  3294   0.452E-03
  15 F= -.11646755E+04 E0= -.11646706E+04  d E =-.417874E-02  mag=     3.9891
       N       E                     dE             d eps       ncg     rms          rms(c)
DAV:   1    -0.116467513127E+04    0.36273E-03   -0.13328E+00  6536   0.132E+00    0.219E-01
RMM:   2    -0.116467814427E+04   -0.30130E-02   -0.32784E-02  6145   0.216E-01    0.142E-01
RMM:   3    -0.116467806893E+04    0.75341E-04   -0.13589E-03  6042   0.521E-02    0.926E-02
RMM:   4    -0.116467800343E+04    0.65493E-04   -0.37360E-04  4919   0.185E-02    0.506E-02
RMM:   5    -0.116467798857E+04    0.14861E-04   -0.88963E-05  3635   0.103E-02    0.143E-02
RMM:   6    -0.116467799226E+04   -0.36909E-05   -0.28219E-05  3453   0.590E-03    0.921E-03
RMM:   7    -0.116467799380E+04   -0.15343E-05   -0.14870E-05  3306   0.447E-03    0.693E-03
RMM:   8    -0.116467799498E+04   -0.11797E-05   -0.99484E-06  3170   0.344E-03
  16 F= -.11646780E+04 E0= -.11646731E+04  d E =-.249908E-02  mag=     3.9891
       N       E                     dE             d eps       ncg     rms          rms(c)
DAV:   1    -0.116467703634E+04    0.95746E-03   -0.14692E+00  6400   0.138E+00    0.228E-01
RMM:   2    -0.116468034251E+04   -0.33062E-02   -0.35808E-02  6145   0.225E-01    0.142E-01
RMM:   3    -0.116468026130E+04    0.81211E-04   -0.14634E-03  6029   0.545E-02    0.927E-02
RMM:   4    -0.116468019074E+04    0.70567E-04   -0.39226E-04  4945   0.190E-02    0.505E-02
RMM:   5    -0.116468017661E+04    0.14131E-04   -0.91568E-05  3663   0.106E-02    0.151E-02
RMM:   6    -0.116468018069E+04   -0.40873E-05   -0.28859E-05  3469   0.606E-03    0.903E-03
RMM:   7    -0.116468018231E+04   -0.16133E-05   -0.15009E-05  3300   0.463E-03    0.727E-03
RMM:   8    -0.116468018354E+04   -0.12324E-05   -0.10338E-05  3176   0.350E-03
  17 F= -.11646802E+04 E0= -.11646753E+04  d E =-.218856E-02  mag=     3.9891
       N       E                     dE             d eps       ncg     rms          rms(c)
DAV:   1    -0.116467954435E+04    0.63796E-03   -0.10645E+00  6400   0.118E+00    0.195E-01
RMM:   2    -0.116468195651E+04   -0.24122E-02   -0.26106E-02  6145   0.192E-01    0.121E-01
RMM:   3    -0.116468189663E+04    0.59877E-04   -0.10674E-03  5825   0.466E-02    0.794E-02
RMM:   4    -0.116468184552E+04    0.51108E-04   -0.27898E-04  4293   0.164E-02    0.446E-02
RMM:   5    -0.116468183630E+04    0.92215E-05   -0.73680E-05  3583   0.948E-03    0.133E-02
RMM:   6    -0.116468183960E+04   -0.32990E-05   -0.23515E-05  3426   0.545E-03    0.839E-03
RMM:   7    -0.116468184093E+04   -0.13319E-05   -0.12180E-05  3256   0.409E-03    0.644E-03
RMM:   8    -0.116468184187E+04   -0.93630E-06   -0.78799E-06  3115   0.321E-03
  18 F= -.11646818E+04 E0= -.11646769E+04  d E =-.165833E-02  mag=     3.9890
       N       E                     dE             d eps       ncg     rms          rms(c)
DAV:   1    -0.116468049687E+04    0.13441E-02   -0.13152E+00  6416   0.131E+00    0.218E-01
RMM:   2    -0.116468347307E+04   -0.29762E-02   -0.32165E-02  6145   0.214E-01    0.134E-01
RMM:   3    -0.116468340023E+04    0.72845E-04   -0.13177E-03  5991   0.518E-02    0.869E-02
RMM:   4    -0.116468334076E+04    0.59465E-04   -0.34489E-04  4666   0.179E-02    0.504E-02
RMM:   5    -0.116468332678E+04    0.13982E-04   -0.87462E-05  3647   0.105E-02    0.133E-02
RMM:   6    -0.116468333067E+04   -0.38878E-05   -0.26622E-05  3466   0.584E-03    0.854E-03
RMM:   7    -0.116468333221E+04   -0.15378E-05   -0.13802E-05  3273   0.447E-03    0.640E-03
RMM:   8    -0.116468333336E+04   -0.11504E-05   -0.92107E-06  3149   0.337E-03
  19 F= -.11646833E+04 E0= -.11646784E+04  d E =-.149149E-02  mag=     3.9890
       N       E                     dE             d eps       ncg     rms          rms(c)
DAV:   1    -0.116468234001E+04    0.99220E-03   -0.91858E-01  6432   0.110E+00    0.184E-01
RMM:   2    -0.116468442059E+04   -0.20806E-02   -0.22541E-02  6146   0.180E-01    0.113E-01
RMM:   3    -0.116468437091E+04    0.49685E-04   -0.91802E-04  5689   0.434E-02    0.731E-02
RMM:   4    -0.116468432813E+04    0.42779E-04   -0.22801E-04  4004   0.153E-02    0.424E-02
RMM:   5    -0.116468432124E+04    0.68915E-05   -0.67746E-05  3596   0.908E-03    0.120E-02
RMM:   6    -0.116468432419E+04   -0.29488E-05   -0.21590E-05  3418   0.518E-03    0.756E-03
RMM:   7    -0.116468432554E+04   -0.13523E-05   -0.11325E-05  3216   0.398E-03    0.590E-03
RMM:   8    -0.116468432648E+04   -0.93506E-06   -0.73956E-06  3069   0.315E-03
  20 F= -.11646843E+04 E0= -.11646794E+04  d E =-.993119E-03  mag=     3.9890
       N       E                     dE             d eps       ncg     rms          rms(c)
DAV:   1    -0.116468392134E+04    0.40420E-03   -0.46105E-01  6416   0.782E-01    0.131E-01
RMM:   2    -0.116468497018E+04   -0.10488E-02   -0.11400E-02  6138   0.128E-01    0.785E-02
RMM:   3    -0.116468494249E+04    0.27698E-04   -0.43693E-04  4606   0.309E-02    0.521E-02
RMM:   4    -0.116468491951E+04    0.22978E-04   -0.11845E-04  3568   0.119E-02    0.255E-02
RMM:   5    -0.116468492069E+04   -0.11821E-05   -0.37130E-05  3452   0.671E-03    0.881E-03
RMM:   6    -0.116468492248E+04   -0.17908E-05   -0.14633E-05  3335   0.424E-03    0.591E-03
RMM:   7    -0.116468492327E+04   -0.79350E-06   -0.73843E-06  2875   0.316E-03    0.375E-03
RMM:   8    -0.116468492384E+04   -0.56217E-06   -0.42587E-06  2508   0.268E-03
  21 F= -.11646849E+04 E0= -.11646800E+04  d E =-.597360E-03  mag=     3.9890
