       N       E                     dE             d eps       ncg     rms          rms(c)
DAV:   1     0.117997797088E+05    0.11800E+05   -0.41774E+05  6168   0.130E+03
DAV:   2     0.601253181403E+03   -0.11199E+05   -0.99951E+04  6168   0.372E+02
DAV:   3    -0.137284654475E+04   -0.19741E+04   -0.19053E+04  6600   0.163E+02
DAV:   4    -0.150424867214E+04   -0.13140E+03   -0.12921E+03  8184   0.430E+01
DAV:   5    -0.151195905222E+04   -0.77104E+01   -0.76823E+01 11000   0.916E+00    0.180E+02
RMM:   6    -0.116739017971E+04    0.34457E+03   -0.15667E+03  6251   0.337E+01    0.952E+01
RMM:   7    -0.115482107421E+04    0.12569E+02   -0.60830E+01  6395   0.971E+00    0.562E+01
RMM:   8    -0.116144675776E+04   -0.66257E+01   -0.33959E+01  6273   0.652E+00    0.225E+01
RMM:   9    -0.116145613739E+04   -0.93796E-02   -0.58058E+00  6424   0.223E+00    0.950E+00
RMM:  10    -0.116245937884E+04   -0.10032E+01   -0.29614E+00  6416   0.138E+00    0.861E+00
RMM:  11    -0.116258464185E+04   -0.12526E+00   -0.79386E-01  6933   0.677E-01    0.581E+00
RMM:  12    -0.116369538406E+04   -0.11107E+01   -0.10796E+00  6192   0.860E-01    0.318E+00
RMM:  13    -0.116414842137E+04   -0.45304E+00   -0.43018E-01  6348   0.576E-01    0.209E+00
RMM:  14    -0.116424293216E+04   -0.94511E-01   -0.10985E-01  7287   0.278E-01    0.146E+00
RMM:  15    -0.116433469222E+04   -0.91760E-01   -0.99777E-02  6283   0.272E-01    0.767E-01
RMM:  16    -0.116435154152E+04   -0.16849E-01   -0.38241E-02  6659   0.174E-01    0.398E-01
RMM:  17    -0.116435440138E+04   -0.28599E-02   -0.10796E-02  7737   0.826E-02    0.229E-01
RMM:  18    -0.116435483408E+04   -0.43270E-03   -0.22183E-03  7100   0.359E-02    0.134E-01
RMM:  19    -0.116435497616E+04   -0.14208E-03   -0.89500E-04  6097   0.241E-02    0.612E-02
RMM:  20    -0.116435501737E+04   -0.41204E-04   -0.29013E-04  4814   0.143E-02
   1 F= -.11643550E+04 E0= -.11643549E+04  d E =-.116436E+04  mag=     2.0144
       N       E                     dE             d eps       ncg     rms          rms(c)
DAV:   1    -0.116442121302E+04   -0.66237E-01   -0.91503E+01  7216   0.108E+01    0.304E+00
RMM:   2    -0.116470516893E+04   -0.28396E+00   -0.34662E+00  6144   0.219E+00    0.265E+00
RMM:   3    -0.116469117980E+04    0.13989E-01   -0.17201E-01  6677   0.515E-01    0.173E+00
RMM:   4    -0.116468028298E+04    0.10897E-01   -0.57631E-02  6642   0.217E-01    0.100E+00
RMM:   5    -0.116467675669E+04    0.35263E-02   -0.27456E-02  6659   0.140E-01    0.294E-01
RMM:   6    -0.116467660917E+04    0.14753E-03   -0.30064E-03  7468   0.461E-02    0.224E-01
RMM:   7    -0.116467669742E+04   -0.88255E-04   -0.99710E-04  6968   0.226E-02    0.141E-01
RMM:   8    -0.116467699423E+04   -0.29681E-03   -0.91433E-04  6061   0.250E-02    0.106E-01
RMM:   9    -0.116467702380E+04   -0.29569E-04   -0.28007E-04  4531   0.132E-02
   2 F= -.11646770E+04 E0= -.11646619E+04  d E =-.322006E+00  mag=     2.4871
       N       E                     dE             d eps       ncg     rms          rms(c)
DAV:   1    -0.116464682567E+04    0.30169E-01   -0.23089E+01  6944   0.547E+00    0.231E+00
RMM:   2    -0.116471777326E+04   -0.70948E-01   -0.80729E-01  6144   0.106E+00    0.174E+00
RMM:   3    -0.116471357679E+04    0.41965E-02   -0.48539E-02  6232   0.245E-01    0.106E+00
RMM:   4    -0.116471788943E+04   -0.43126E-02   -0.39430E-02  6250   0.156E-01    0.522E-01
RMM:   5    -0.116472026588E+04   -0.23764E-02   -0.14650E-02  6686   0.952E-02    0.310E-01
RMM:   6    -0.116472080738E+04   -0.54150E-03   -0.28219E-03  7131   0.394E-02    0.226E-01
RMM:   7    -0.116472175100E+04   -0.94362E-03   -0.12363E-03  6315   0.290E-02    0.126E-01
RMM:   8    -0.116472232338E+04   -0.57238E-03   -0.70608E-04  5576   0.242E-02    0.641E-02
RMM:   9    -0.116472242867E+04   -0.10529E-03   -0.19819E-04  4264   0.121E-02    0.461E-02
RMM:  10    -0.116472250780E+04   -0.79133E-04   -0.11838E-04  3920   0.956E-03
   3 F= -.11647225E+04 E0= -.11647145E+04  d E =-.367490E+00  mag=     3.9116
       N       E                     dE             d eps       ncg     rms          rms(c)
DAV:   1    -0.116484272138E+04   -0.12029E+00   -0.37848E+01  6608   0.708E+00    0.197E+00
RMM:   2    -0.116490946145E+04   -0.66740E-01   -0.11456E+00  6144   0.131E+00    0.161E+00
RMM:   3    -0.116490115919E+04    0.83023E-02   -0.51219E-02  6334   0.297E-01    0.101E+00
RMM:   4    -0.116489618226E+04    0.49769E-02   -0.22282E-02  6830   0.141E-01    0.604E-01
RMM:   5    -0.116489408145E+04    0.21008E-02   -0.58097E-03  6655   0.697E-02    0.210E-01
RMM:   6    -0.116489414339E+04   -0.61935E-04   -0.87617E-04  6511   0.262E-02    0.135E-01
RMM:   7    -0.116489417074E+04   -0.27355E-04   -0.37833E-04  5212   0.176E-02    0.547E-02
RMM:   8    -0.116489418277E+04   -0.12030E-04   -0.14552E-04  4380   0.115E-02
   4 F= -.11648942E+04 E0= -.11648861E+04  d E =-.171675E+00  mag=     3.9712
       N       E                     dE             d eps       ncg     rms          rms(c)
DAV:   1    -0.116489712608E+04   -0.29553E-02   -0.16696E+00  6960   0.152E+00    0.417E-01
RMM:   2    -0.116490005908E+04   -0.29330E-02   -0.50795E-02  6144   0.277E-01    0.348E-01
RMM:   3    -0.116489973067E+04    0.32841E-03   -0.24351E-03  6328   0.640E-02    0.222E-01
RMM:   4    -0.116489952840E+04    0.20227E-03   -0.10440E-03  5775   0.307E-02    0.131E-01
RMM:   5    -0.116489943066E+04    0.97747E-04   -0.24016E-04  4481   0.157E-02    0.437E-02
RMM:   6    -0.116489943597E+04   -0.53177E-05   -0.44983E-05  3776   0.805E-03    0.275E-02
RMM:   7    -0.116489943915E+04   -0.31762E-05   -0.25166E-05  3608   0.561E-03    0.164E-02
RMM:   8    -0.116489943982E+04   -0.66929E-06   -0.11889E-05  3494   0.421E-03
   5 F= -.11648994E+04 E0= -.11648912E+04  d E =-.176932E+00  mag=     3.9780
       N       E                     dE             d eps       ncg     rms          rms(c)
DAV:   1    -0.116499072552E+04   -0.91286E-01   -0.11226E+01  6512   0.387E+00    0.116E+00
RMM:   2    -0.116501809377E+04   -0.27368E-01   -0.39719E-01  6144   0.788E-01    0.128E+00
RMM:   3    -0.116501404322E+04    0.40505E-02   -0.16727E-02  6639   0.160E-01    0.920E-01
RMM:   4    -0.116501171231E+04    0.23309E-02   -0.99190E-03  6539   0.966E-02    0.546E-01
RMM:   5    -0.116500987954E+04    0.18328E-02   -0.37868E-03  6263   0.606E-02    0.132E-01
RMM:   6    -0.116500981250E+04    0.67039E-04   -0.32358E-04  4874   0.170E-02    0.868E-02
RMM:   7    -0.116500978909E+04    0.23402E-04   -0.12409E-04  4066   0.117E-02    0.510E-02
RMM:   8    -0.116500979235E+04   -0.32573E-05   -0.83660E-05  3816   0.100E-02
   6 F= -.11650098E+04 E0= -.11650019E+04  d E =-.110353E+00  mag=     3.9787
       N       E                     dE             d eps       ncg     rms          rms(c)
DAV:   1    -0.116502477808E+04   -0.14989E-01   -0.61905E+00  6544   0.287E+00    0.838E-01
RMM:   2    -0.116503978726E+04   -0.15009E-01   -0.21569E-01  6144   0.582E-01    0.916E-01
RMM:   3    -0.116503756871E+04    0.22185E-02   -0.92556E-03  6630   0.118E-01    0.652E-01
RMM:   4    -0.116503628255E+04    0.12862E-02   -0.52856E-03  6450   0.702E-02    0.393E-01
RMM:   5    -0.116503528825E+04    0.99430E-03   -0.20747E-03  6106   0.450E-02    0.934E-02
RMM:   6    -0.116503525462E+04    0.33630E-04   -0.14638E-04  4163   0.126E-02    0.639E-02
RMM:   7    -0.116503524533E+04    0.92879E-05   -0.67599E-05  3825   0.951E-03    0.363E-02
RMM:   8    -0.116503524906E+04   -0.37302E-05   -0.54902E-05  3657   0.799E-03
   7 F= -.11650352E+04 E0= -.11650278E+04  d E =-.135809E+00  mag=     3.9793
       N       E                     dE             d eps       ncg     rms          rms(c)
DAV:   1    -0.116505933748E+04   -0.24092E-01   -0.52111E+00  6528   0.267E+00    0.588E-01
RMM:   2    -0.116507070618E+04   -0.11369E-01   -0.14733E-01  6144   0.482E-01    0.547E-01
RMM:   3    -0.116506995105E+04    0.75514E-03   -0.61137E-03  6583   0.105E-01    0.362E-01
RMM:   4    -0.116506945565E+04    0.49540E-03   -0.25226E-03  6423   0.471E-02    0.236E-01
RMM:   5    -0.116506908908E+04    0.36657E-03   -0.91821E-04  5909   0.284E-02    0.467E-02
RMM:   6    -0.116506908067E+04    0.84133E-05   -0.77159E-05  3919   0.973E-03    0.348E-02
RMM:   7    -0.116506907892E+04    0.17487E-05   -0.38265E-05  3597   0.729E-03    0.187E-02
RMM:   8    -0.116506908128E+04   -0.23651E-05   -0.27497E-05  3507   0.587E-03
   8 F= -.11650691E+04 E0= -.11650621E+04  d E =-.338322E-01  mag=     3.9791
       N       E                     dE             d eps       ncg     rms          rms(c)
DAV:   1    -0.116506704777E+04    0.20311E-02   -0.10294E+01  6440   0.375E+00    0.830E-01
RMM:   2    -0.116508967458E+04   -0.22627E-01   -0.29198E-01  6144   0.677E-01    0.768E-01
RMM:   3    -0.116508817284E+04    0.15017E-02   -0.12106E-02  6627   0.148E-01    0.507E-01
RMM:   4    -0.116508719961E+04    0.97323E-03   -0.48360E-03  6703   0.658E-02    0.334E-01
RMM:   5    -0.116508648723E+04    0.71238E-03   -0.19014E-03  6397   0.403E-02    0.669E-02
RMM:   6    -0.116508646950E+04    0.17736E-04   -0.16419E-04  4323   0.135E-02    0.496E-02
RMM:   7    -0.116508646693E+04    0.25646E-05   -0.83957E-05  3810   0.102E-02    0.274E-02
RMM:   8    -0.116508647161E+04   -0.46795E-05   -0.59434E-05  3625   0.803E-03
   9 F= -.11650865E+04 E0= -.11650802E+04  d E =-.512225E-01  mag=     3.9797
       N       E                     dE             d eps       ncg     rms          rms(c)
DAV:   1    -0.116509479321E+04   -0.83263E-02   -0.95963E+00  6448   0.363E+00    0.712E-01
RMM:   2    -0.116511622824E+04   -0.21435E-01   -0.25738E-01  6144   0.619E-01    0.580E-01
RMM:   3    -0.116511531962E+04    0.90862E-03   -0.10671E-02  6431   0.145E-01    0.372E-01
RMM:   4    -0.116511483753E+04    0.48209E-03   -0.35717E-03  6984   0.549E-02    0.242E-01
RMM:   5    -0.116511442604E+04    0.41149E-03   -0.11948E-03  6549   0.294E-02    0.511E-02
RMM:   6    -0.116511442539E+04    0.65450E-06   -0.13321E-04  4166   0.117E-02    0.347E-02
RMM:   7    -0.116511442919E+04   -0.38028E-05   -0.67789E-05  3687   0.892E-03    0.211E-02
RMM:   8    -0.116511443333E+04   -0.41435E-05   -0.43944E-05  3590   0.679E-03
  10 F= -.11651144E+04 E0= -.11651083E+04  d E =-.279617E-01  mag=     3.9798
       N       E                     dE             d eps       ncg     rms          rms(c)
DAV:   1    -0.116509825038E+04    0.16179E-01   -0.13965E+01  6408   0.438E+00    0.861E-01
RMM:   2    -0.116512931225E+04   -0.31062E-01   -0.37281E-01  6144   0.748E-01    0.699E-01
RMM:   3    -0.116512800588E+04    0.13064E-02   -0.15545E-02  6449   0.175E-01    0.447E-01
RMM:   4    -0.116512731542E+04    0.69047E-03   -0.51596E-03  7100   0.663E-02    0.290E-01
RMM:   5    -0.116512672221E+04    0.59321E-03   -0.17138E-03  6812   0.354E-02    0.607E-02
RMM:   6    -0.116512672502E+04   -0.28043E-05   -0.21127E-04  4522   0.139E-02    0.413E-02
RMM:   7    -0.116512673146E+04   -0.64463E-05   -0.10508E-04  3842   0.103E-02    0.248E-02
RMM:   8    -0.116512673744E+04   -0.59709E-05   -0.63512E-05  3666   0.792E-03
  11 F= -.11651267E+04 E0= -.11651207E+04  d E =-.402658E-01  mag=     3.9808
       N       E                     dE             d eps       ncg     rms          rms(c)
DAV:   1    -0.116512316522E+04    0.35662E-02   -0.13273E+01  6304   0.417E+00    0.818E-01
RMM:   2    -0.116515314701E+04   -0.29982E-01   -0.33384E-01  6148   0.689E-01    0.598E-01
RMM:   3    -0.116515234409E+04    0.80292E-03   -0.13965E-02  6256   0.169E-01    0.389E-01
RMM:   4    -0.116515165725E+04    0.68684E-03   -0.45908E-03  7216   0.635E-02    0.205E-01
RMM:   5    -0.116515146928E+04    0.18797E-03   -0.12279E-03  6918   0.304E-02    0.494E-02
RMM:   6    -0.116515147196E+04   -0.26870E-05   -0.17238E-04  4175   0.121E-02    0.332E-02
RMM:   7    -0.116515147823E+04   -0.62664E-05   -0.97555E-05  3833   0.947E-03    0.169E-02
RMM:   8    -0.116515148235E+04   -0.41211E-05   -0.57473E-05  3668   0.762E-03
  12 F= -.11651515E+04 E0= -.11651455E+04  d E =-.247449E-01  mag=     3.9810
       N       E                     dE             d eps       ncg     rms          rms(c)
DAV:   1    -0.116513278592E+04    0.18692E-01   -0.12665E+01  6320   0.407E+00    0.797E-01
RMM:   2    -0.116516127537E+04   -0.28489E-01   -0.31741E-01  6150   0.671E-01    0.581E-01
RMM:   3    -0.116516053038E+04    0.74500E-03   -0.13326E-02  6257   0.165E-01    0.376E-01
RMM:   4    -0.116515987517E+04    0.65520E-03   -0.43596E-03  7272   0.618E-02    0.199E-01
RMM:   5    -0.116515969809E+04    0.17708E-03   -0.11676E-03  6917   0.295E-02    0.476E-02
RMM:   6    -0.116515970245E+04   -0.43631E-05   -0.16958E-04  4200   0.119E-02    0.319E-02
RMM:   7    -0.116515970857E+04   -0.61132E-05   -0.93197E-05  3850   0.938E-03    0.164E-02
RMM:   8    -0.116515971259E+04   -0.40251E-05   -0.56769E-05  3700   0.757E-03
  13 F= -.11651597E+04 E0= -.11651537E+04  d E =-.329752E-01  mag=     3.9811
       N       E                     dE             d eps       ncg     rms          rms(c)
DAV:   1    -0.116514645824E+04    0.13250E-01   -0.14534E+01  6352   0.435E+00    0.806E-01
RMM:   2    -0.116517731047E+04   -0.30852E-01   -0.36147E-01  6145   0.721E-01    0.619E-01
RMM:   3    -0.116517605844E+04    0.12520E-02   -0.14975E-02  6293   0.171E-01    0.396E-01
RMM:   4    -0.116517523675E+04    0.82169E-03   -0.54504E-03  7173   0.674E-02    0.238E-01
RMM:   5    -0.116517479117E+04    0.44558E-03   -0.15526E-03  6910   0.339E-02    0.616E-02
RMM:   6    -0.116517479790E+04   -0.67287E-05   -0.19446E-04  4472   0.130E-02    0.437E-02
RMM:   7    -0.116517480480E+04   -0.68950E-05   -0.10751E-04  3905   0.105E-02    0.240E-02
RMM:   8    -0.116517481074E+04   -0.59437E-05   -0.67096E-05  3704   0.804E-03
  14 F= -.11651748E+04 E0= -.11651692E+04  d E =-.150982E-01  mag=     3.9807
       N       E                     dE             d eps       ncg     rms          rms(c)
DAV:   1    -0.116517422801E+04    0.57679E-03   -0.54172E-01  6768   0.840E-01    0.155E-01
RMM:   2    -0.116517539189E+04   -0.11639E-02   -0.13631E-02  6148   0.139E-01    0.120E-01
RMM:   3    -0.116517533705E+04    0.54838E-04   -0.57009E-04  5286   0.333E-02    0.782E-02
RMM:   4    -0.116517530597E+04    0.31080E-04   -0.21925E-04  4139   0.143E-02    0.432E-02
RMM:   5    -0.116517529235E+04    0.13619E-04   -0.62662E-05  3662   0.816E-03    0.132E-02
RMM:   6    -0.116517529424E+04   -0.18928E-05   -0.21560E-05  3444   0.495E-03    0.896E-03
RMM:   7    -0.116517529535E+04   -0.11030E-05   -0.12542E-05  3257   0.376E-03    0.641E-03
RMM:   8    -0.116517529604E+04   -0.69242E-06   -0.76300E-06  3007   0.312E-03
  15 F= -.11651753E+04 E0= -.11651697E+04  d E =-.155834E-01  mag=     3.9806
       N       E                     dE             d eps       ncg     rms          rms(c)
DAV:   1    -0.116516189962E+04    0.13396E-01   -0.12236E+01  6392   0.404E+00    0.778E-01
RMM:   2    -0.116518927353E+04   -0.27374E-01   -0.30679E-01  6146   0.669E-01    0.558E-01
RMM:   3    -0.116518837989E+04    0.89364E-03   -0.12425E-02  6190   0.161E-01    0.360E-01
RMM:   4    -0.116518782055E+04    0.55934E-03   -0.43519E-03  7217   0.604E-02    0.188E-01
RMM:   5    -0.116518759200E+04    0.22854E-03   -0.11241E-03  7024   0.281E-02    0.438E-02
RMM:   6    -0.116518759581E+04   -0.38083E-05   -0.16360E-04  4152   0.117E-02    0.302E-02
RMM:   7    -0.116518760040E+04   -0.45935E-05   -0.81743E-05  3783   0.924E-03    0.174E-02
RMM:   8    -0.116518760454E+04   -0.41350E-05   -0.58270E-05  3678   0.758E-03
  16 F= -.11651876E+04 E0= -.11651820E+04  d E =-.123085E-01  mag=     3.9807
       N       E                     dE             d eps       ncg     rms          rms(c)
DAV:   1    -0.116518521854E+04    0.23819E-02   -0.16503E+00  6456   0.149E+00    0.286E-01
RMM:   2    -0.116518894941E+04   -0.37309E-02   -0.41756E-02  6146   0.246E-01    0.205E-01
RMM:   3    -0.116518881845E+04    0.13096E-03   -0.17473E-03  6152   0.595E-02    0.133E-01
RMM:   4    -0.116518873994E+04    0.78516E-04   -0.59971E-04  5991   0.228E-02    0.684E-02
RMM:   5    -0.116518871014E+04    0.29794E-04   -0.14234E-04  4056   0.121E-02    0.180E-02
RMM:   6    -0.116518871315E+04   -0.30090E-05   -0.36647E-05  3548   0.724E-03    0.103E-02
RMM:   7    -0.116518871533E+04   -0.21756E-05   -0.29420E-05  3373   0.561E-03    0.800E-03
RMM:   8    -0.116518871640E+04   -0.10688E-05   -0.14232E-05  3232   0.433E-03
  17 F= -.11651887E+04 E0= -.11651830E+04  d E =-.134204E-01  mag=     3.9809
       N       E                     dE             d eps       ncg     rms          rms(c)
DAV:   1    -0.116518158188E+04    0.71334E-02   -0.64056E+00  6400   0.293E+00    0.564E-01
RMM:   2    -0.116519558120E+04   -0.13999E-01   -0.16418E-01  6144   0.494E-01    0.437E-01
RMM:   3    -0.116519500064E+04    0.58056E-03   -0.66750E-03  6311   0.115E-01    0.286E-01
RMM:   4    -0.116519458307E+04    0.41757E-03   -0.24953E-03  6871   0.455E-02    0.151E-01
RMM:   5    -0.116519441004E+04    0.17303E-03   -0.62678E-04  5949   0.221E-02    0.388E-02
RMM:   6    -0.116519441141E+04   -0.13697E-05   -0.84823E-05  3757   0.959E-03    0.264E-02
RMM:   7    -0.116519441430E+04   -0.28935E-05   -0.55283E-05  3666   0.746E-03    0.146E-02
RMM:   8    -0.116519441742E+04   -0.31143E-05   -0.35756E-05  3584   0.620E-03
  18 F= -.11651944E+04 E0= -.11651883E+04  d E =-.570102E-02  mag=     3.9813
       N       E                     dE             d eps       ncg     rms          rms(c)
DAV:   1    -0.116519442184E+04   -0.75365E-05   -0.16083E-04  4256   0.148E-02    0.557E-03
RMM:   2    -0.116519442351E+04   -0.16703E-05   -0.17867E-05  3324   0.554E-03    0.432E-03
RMM:   3    -0.116519442409E+04   -0.58183E-06   -0.60696E-06  2661   0.300E-03    0.262E-03
RMM:   4    -0.116519442432E+04   -0.23370E-06   -0.29251E-06  2030   0.244E-03    0.203E-03
RMM:   5    -0.116519442446E+04   -0.13618E-06   -0.15547E-06  1449   0.226E-03    0.688E-04
RMM:   6    -0.116519442451E+04   -0.50029E-07   -0.57392E-07   816   0.205E-03    0.413E-04
RMM:   7    -0.116519442453E+04   -0.16647E-07   -0.24302E-07   665   0.199E-03    0.203E-04
RMM:   8    -0.116519442453E+04   -0.66939E-08   -0.10724E-07   596   0.197E-03
  19 F= -.11651944E+04 E0= -.11651883E+04  d E =-.570814E-02  mag=     3.9814
       N       E                     dE             d eps       ncg     rms          rms(c)
DAV:   1    -0.116519012078E+04    0.43038E-02   -0.40624E+00  6400   0.234E+00    0.424E-01
RMM:   2    -0.116519904152E+04   -0.89207E-02   -0.10193E-01  6144   0.389E-01    0.332E-01
RMM:   3    -0.116519874780E+04    0.29371E-03   -0.40682E-03  6147   0.907E-02    0.215E-01
RMM:   4    -0.116519855293E+04    0.19487E-03   -0.14189E-03  6317   0.345E-02    0.133E-01
RMM:   5    -0.116519842620E+04    0.12673E-03   -0.40933E-04  5467   0.183E-02    0.263E-02
RMM:   6    -0.116519842778E+04   -0.15754E-05   -0.48319E-05  3593   0.824E-03    0.185E-02
RMM:   7    -0.116519843034E+04   -0.25626E-05   -0.38582E-05  3529   0.635E-03    0.113E-02
RMM:   8    -0.116519843216E+04   -0.18250E-05   -0.24023E-05  3428   0.516E-03
  20 F= -.11651984E+04 E0= -.11651921E+04  d E =-.400763E-02  mag=     3.9813
       N       E                     dE             d eps       ncg     rms          rms(c)
DAV:   1    -0.116519812762E+04    0.30272E-03   -0.22733E-01  6424   0.553E-01    0.999E-02
RMM:   2    -0.116519863538E+04   -0.50777E-03   -0.57924E-03  6114   0.921E-02    0.789E-02
RMM:   3    -0.116519861332E+04    0.22058E-04   -0.20608E-04  3990   0.218E-02    0.520E-02
RMM:   4    -0.116519860236E+04    0.10967E-04   -0.83494E-05  3556   0.978E-03    0.289E-02
RMM:   5    -0.116519859832E+04    0.40366E-05   -0.30228E-05  3448   0.596E-03    0.672E-03
RMM:   6    -0.116519859934E+04   -0.10208E-05   -0.11198E-05  3263   0.376E-03    0.506E-03
RMM:   7    -0.116519859985E+04   -0.50505E-06   -0.58536E-06  2596   0.290E-03    0.311E-03
RMM:   8    -0.116519860015E+04   -0.30838E-06   -0.32278E-06  2034   0.246E-03
  21 F= -.11651986E+04 E0= -.11651922E+04  d E =-.417562E-02  mag=     3.9812
       N       E                     dE             d eps       ncg     rms          rms(c)
DAV:   1    -0.116519364284E+04    0.49570E-02   -0.38275E+00  6384   0.226E+00    0.417E-01
RMM:   2    -0.116520203620E+04   -0.83934E-02   -0.96732E-02  6144   0.380E-01    0.349E-01
RMM:   3    -0.116520174409E+04    0.29212E-03   -0.38739E-03  6189   0.878E-02    0.232E-01
RMM:   4    -0.116520152935E+04    0.21474E-03   -0.13689E-03  6319   0.337E-02    0.135E-01
RMM:   5    -0.116520140071E+04    0.12864E-03   -0.41510E-04  5454   0.183E-02    0.271E-02
RMM:   6    -0.116520140169E+04   -0.98476E-06   -0.48375E-05  3619   0.813E-03    0.190E-02
RMM:   7    -0.116520140338E+04   -0.16822E-05   -0.34218E-05  3516   0.605E-03    0.112E-02
RMM:   8    -0.116520140533E+04   -0.19593E-05   -0.23792E-05  3449   0.514E-03
  22 F= -.11652014E+04 E0= -.11651950E+04  d E =-.280518E-02  mag=     3.9811
       N       E                     dE             d eps       ncg     rms          rms(c)
DAV:   1    -0.116520140719E+04   -0.38131E-05   -0.77030E-05  3832   0.113E-02    0.436E-03
RMM:   2    -0.116520140840E+04   -0.12158E-05   -0.12700E-05  3305   0.459E-03    0.328E-03
RMM:   3    -0.116520140886E+04   -0.45677E-06   -0.45682E-06  2277   0.259E-03    0.203E-03
RMM:   4    -0.116520140904E+04   -0.18280E-06   -0.21697E-06  1558   0.219E-03    0.165E-03
RMM:   5    -0.116520140916E+04   -0.11976E-06   -0.10723E-06   842   0.200E-03    0.582E-04
RMM:   6    -0.116520140922E+04   -0.56345E-07   -0.59368E-07   685   0.191E-03    0.328E-04
RMM:   7    -0.116520140923E+04   -0.15047E-07   -0.25238E-07   566   0.186E-03    0.143E-04
RMM:   8    -0.116520140924E+04   -0.96625E-08   -0.11420E-07   501   0.184E-03
  23 F= -.11652014E+04 E0= -.11651950E+04  d E =-.280909E-02  mag=     3.9811
       N       E                     dE             d eps       ncg     rms          rms(c)
DAV:   1    -0.116519992616E+04    0.14831E-02   -0.13722E+00  6440   0.137E+00    0.269E-01
RMM:   2    -0.116520294144E+04   -0.30153E-02   -0.36308E-02  6144   0.235E-01    0.229E-01
RMM:   3    -0.116520278827E+04    0.15317E-03   -0.14689E-03  6151   0.537E-02    0.149E-01
RMM:   4    -0.116520269059E+04    0.97685E-04   -0.54012E-04  5370   0.220E-02    0.916E-02
RMM:   5    -0.116520262810E+04    0.62483E-04   -0.14479E-04  4110   0.134E-02    0.203E-02
RMM:   6    -0.116520263191E+04   -0.38065E-05   -0.35101E-05  3528   0.705E-03    0.133E-02
RMM:   7    -0.116520263283E+04   -0.91638E-06   -0.16809E-05  3422   0.501E-03    0.101E-02
RMM:   8    -0.116520263367E+04   -0.84456E-06   -0.10912E-05  3165   0.371E-03
  24 F= -.11652026E+04 E0= -.11651964E+04  d E =-.122443E-02  mag=     3.9810
       N       E                     dE             d eps       ncg     rms          rms(c)
DAV:   1    -0.116520262057E+04    0.12259E-04   -0.14929E-02  6528   0.143E-01    0.285E-02
RMM:   2    -0.116520264983E+04   -0.29259E-04   -0.36236E-04  4059   0.248E-02    0.272E-02
RMM:   3    -0.116520265077E+04   -0.94248E-06   -0.23617E-05  3283   0.793E-03    0.147E-02
RMM:   4    -0.116520265026E+04    0.50760E-06   -0.55922E-06  2890   0.312E-03    0.136E-02
RMM:   5    -0.116520264908E+04    0.11755E-05   -0.17384E-06  1905   0.206E-03    0.363E-03
RMM:   6    -0.116520264912E+04   -0.38926E-07   -0.68481E-07   884   0.166E-03    0.142E-03
RMM:   7    -0.116520264911E+04    0.12456E-07   -0.15517E-08   508   0.141E-03    0.914E-04
RMM:   8    -0.116520264910E+04    0.11627E-07   -0.78751E-09   482   0.139E-03
  25 F= -.11652026E+04 E0= -.11651964E+04  d E =-.123985E-02  mag=     3.9810
       N       E                     dE             d eps       ncg     rms          rms(c)
DAV:   1    -0.116520219580E+04    0.45331E-03   -0.52595E-01  6464   0.853E-01    0.172E-01
RMM:   2    -0.116520335791E+04   -0.11621E-02   -0.14161E-02  6144   0.148E-01    0.143E-01
RMM:   3    -0.116520329749E+04    0.60419E-04   -0.51365E-04  5069   0.332E-02    0.949E-02
RMM:   4    -0.116520325731E+04    0.40183E-04   -0.18731E-04  3862   0.147E-02    0.520E-02
RMM:   5    -0.116520323856E+04    0.18743E-04   -0.58778E-05  3629   0.850E-03    0.112E-02
RMM:   6    -0.116520323974E+04   -0.11776E-05   -0.15151E-05  3392   0.468E-03    0.788E-03
RMM:   7    -0.116520324033E+04   -0.59376E-06   -0.72505E-06  2983   0.318E-03    0.530E-03
RMM:   8    -0.116520324071E+04   -0.38059E-06   -0.38835E-06  2546   0.275E-03
  26 F= -.11652032E+04 E0= -.11651971E+04  d E =-.591615E-03  mag=     3.9809
       N       E                     dE             d eps       ncg     rms          rms(c)
DAV:   1    -0.116520323847E+04    0.18670E-05   -0.18080E-03  6368   0.501E-02    0.104E-02
RMM:   2    -0.116520324203E+04   -0.35653E-05   -0.45103E-05  3218   0.900E-03    0.920E-03
RMM:   3    -0.116520324243E+04   -0.39348E-06   -0.40205E-06  2693   0.314E-03    0.503E-03
RMM:   4    -0.116520324228E+04    0.14695E-06   -0.31642E-08   696   0.159E-03    0.391E-03
RMM:   5    -0.116520324211E+04    0.16790E-06   -0.23657E-08   508   0.163E-03    0.106E-03
RMM:   6    -0.116520324210E+04    0.10623E-07   -0.11334E-08   451   0.167E-03    0.439E-04
RMM:   7    -0.116520324210E+04    0.11787E-08   -0.43912E-09   338   0.167E-03    0.297E-04
RMM:   8    -0.116520324210E+04    0.94587E-09   -0.85199E-09   296   0.167E-03
  27 F= -.11652032E+04 E0= -.11651971E+04  d E =-.592999E-03  mag=     3.9809
       N       E                     dE             d eps       ncg     rms          rms(c)
DAV:   1    -0.116520287843E+04    0.36367E-03   -0.40614E-01  6432   0.752E-01    0.156E-01
RMM:   2    -0.116520374820E+04   -0.86976E-03   -0.10799E-02  6144   0.129E-01    0.124E-01
RMM:   3    -0.116520369122E+04    0.56976E-04   -0.39420E-04  4805   0.297E-02    0.806E-02
RMM:   4    -0.116520365752E+04    0.33699E-04   -0.15566E-04  3721   0.135E-02    0.451E-02
RMM:   5    -0.116520364512E+04    0.12396E-04   -0.52353E-05  3551   0.799E-03    0.113E-02
RMM:   6    -0.116520364635E+04   -0.12267E-05   -0.14695E-05  3391   0.453E-03    0.837E-03
RMM:   7    -0.116520364701E+04   -0.65696E-06   -0.71414E-06  2960   0.315E-03    0.545E-03
RMM:   8    -0.116520364748E+04   -0.46944E-06   -0.39405E-06  2568   0.272E-03
  28 F= -.11652036E+04 E0= -.11651976E+04  d E =-.405379E-03  mag=     3.9809
       N       E                     dE             d eps       ncg     rms          rms(c)
DAV:   1    -0.116520363171E+04    0.15294E-04   -0.14381E-02  6176   0.142E-01    0.295E-02
RMM:   2    -0.116520365914E+04   -0.27427E-04   -0.35113E-04  3961   0.244E-02    0.261E-02
RMM:   3    -0.116520365996E+04   -0.81834E-06   -0.23539E-05  3227   0.791E-03    0.144E-02
RMM:   4    -0.116520365926E+04    0.69990E-06   -0.57383E-06  2866   0.314E-03    0.127E-02
RMM:   5    -0.116520365806E+04    0.12045E-05   -0.16239E-06  1823   0.208E-03    0.311E-03
RMM:   6    -0.116520365810E+04   -0.40891E-07   -0.75343E-07   828   0.170E-03    0.126E-03
RMM:   7    -0.116520365809E+04    0.71450E-08   -0.15170E-08   398   0.144E-03    0.813E-04
RMM:   8    -0.116520365808E+04    0.89058E-08   -0.14290E-08   371   0.142E-03
  29 F= -.11652037E+04 E0= -.11651976E+04  d E =-.415982E-03  mag=     3.9809
