       N       E                     dE             d eps       ncg     rms          rms(c)
DAV:   1    -0.115906008919E+04   -0.11591E+04   -0.43980E-06  7512   0.364E-03    0.364E-03
RMM:   2    -0.115906008959E+04   -0.40278E-06   -0.19623E-06  4077   0.274E-03    0.542E-03
RMM:   3    -0.115906008968E+04   -0.89276E-07   -0.34052E-07  1717   0.173E-03    0.190E-03
RMM:   4    -0.115906008980E+04   -0.11240E-06   -0.23796E-07  1337   0.175E-03    0.228E-03
RMM:   5    -0.115906008986E+04   -0.62340E-07   -0.94321E-08  1048   0.170E-03    0.195E-03
RMM:   6    -0.115906008981E+04    0.44049E-07   -0.23365E-08   839   0.167E-03    0.199E-03
RMM:   7    -0.115906008972E+04    0.93190E-07   -0.14154E-08   801   0.165E-03    0.210E-03
RMM:   8    -0.115906009001E+04   -0.29252E-06   -0.12446E-07   974   0.174E-03
   1 F= -.11590601E+04 E0= -.11590601E+04  d E =-.115906E+04  mag=     6.0000
       N       E                     dE             d eps       ncg     rms          rms(c)
DAV:   1    -0.115906041880E+04   -0.32908E-03   -0.12229E-01 12400   0.395E-01    0.103E-01
RMM:   2    -0.115906066318E+04   -0.24437E-03   -0.30895E-03 12413   0.713E-02    0.699E-02
RMM:   3    -0.115906064824E+04    0.14938E-04   -0.14544E-04  7419   0.271E-02    0.433E-02
RMM:   4    -0.115906062978E+04    0.18455E-04   -0.76408E-05  7061   0.113E-02    0.222E-02
RMM:   5    -0.115906063037E+04   -0.58282E-06   -0.16766E-05  6716   0.735E-03    0.840E-03
RMM:   6    -0.115906063127E+04   -0.90597E-06   -0.78083E-06  6314   0.429E-03    0.639E-03
RMM:   7    -0.115906063178E+04   -0.50441E-06   -0.34869E-06  5256   0.357E-03    0.428E-03
RMM:   8    -0.115906063226E+04   -0.48221E-06   -0.20588E-06  4167   0.242E-03
   2 F= -.11590606E+04 E0= -.11590606E+04  d E =-.542246E-03  mag=     6.0000
       N       E                     dE             d eps       ncg     rms          rms(c)
DAV:   1    -0.115906084218E+04   -0.21041E-03   -0.38209E-02 12096   0.222E-01    0.537E-02
RMM:   2    -0.115906091138E+04   -0.69200E-04   -0.10258E-03 11725   0.414E-02    0.439E-02
RMM:   3    -0.115906090599E+04    0.53911E-05   -0.50821E-05  6634   0.163E-02    0.279E-02
RMM:   4    -0.115906089970E+04    0.62958E-05   -0.29483E-05  6522   0.691E-03    0.166E-02
RMM:   5    -0.115906089927E+04    0.43106E-06   -0.76257E-06  5994   0.478E-03    0.601E-03
RMM:   6    -0.115906089971E+04   -0.44437E-06   -0.33970E-06  4816   0.297E-03    0.494E-03
RMM:   7    -0.115906089995E+04   -0.24425E-06   -0.13828E-06  3398   0.253E-03    0.338E-03
RMM:   8    -0.115906090033E+04   -0.37956E-06   -0.90919E-07  3031   0.220E-03
   3 F= -.11590609E+04 E0= -.11590609E+04  d E =-.268074E-03  mag=     6.0000
       N       E                     dE             d eps       ncg     rms          rms(c)
DAV:   1    -0.115906107586E+04   -0.17590E-03   -0.66739E-02 12112   0.288E-01    0.594E-02
RMM:   2    -0.115906121627E+04   -0.14041E-03   -0.15996E-03 12013   0.503E-02    0.429E-02
RMM:   3    -0.115906121315E+04    0.31143E-05   -0.74917E-05  6882   0.197E-02    0.272E-02
RMM:   4    -0.115906120923E+04    0.39273E-05   -0.30321E-05  6529   0.723E-03    0.169E-02
RMM:   5    -0.115906120930E+04   -0.76179E-07   -0.81257E-06  6188   0.505E-03    0.617E-03
RMM:   6    -0.115906120995E+04   -0.64506E-06   -0.39896E-06  4986   0.313E-03    0.411E-03
RMM:   7    -0.115906121029E+04   -0.33934E-06   -0.17888E-06  3852   0.275E-03    0.286E-03
RMM:   8    -0.115906121077E+04   -0.48135E-06   -0.12659E-06  3223   0.225E-03
   4 F= -.11590612E+04 E0= -.11590612E+04  d E =-.310434E-03  mag=     6.0000
       N       E                     dE             d eps       ncg     rms          rms(c)
DAV:   1    -0.115906137109E+04   -0.16081E-03   -0.77766E-02 12048   0.310E-01    0.590E-02
RMM:   2    -0.115906154351E+04   -0.17242E-03   -0.18223E-03 12190   0.534E-02    0.392E-02
RMM:   3    -0.115906154251E+04    0.10004E-05   -0.84178E-05  6998   0.204E-02    0.251E-02
RMM:   4    -0.115906154000E+04    0.25141E-05   -0.28548E-05  6621   0.717E-03    0.154E-02
RMM:   5    -0.115906154068E+04   -0.67618E-06   -0.79676E-06  6153   0.490E-03    0.583E-03
RMM:   6    -0.115906154144E+04   -0.76574E-06   -0.40415E-06  4898   0.321E-03    0.355E-03
RMM:   7    -0.115906154185E+04   -0.41339E-06   -0.19860E-06  3965   0.275E-03    0.272E-03
RMM:   8    -0.115906154243E+04   -0.57048E-06   -0.14700E-06  3297   0.235E-03
   5 F= -.11590615E+04 E0= -.11590615E+04  d E =-.331657E-03  mag=     6.0000
       N       E                     dE             d eps       ncg     rms          rms(c)
DAV:   1    -0.115906169705E+04   -0.15520E-03   -0.65035E-02 12048   0.282E-01    0.515E-02
RMM:   2    -0.115906184005E+04   -0.14300E-03   -0.15010E-03 11794   0.484E-02    0.335E-02
RMM:   3    -0.115906184023E+04   -0.17234E-06   -0.72225E-05  6919   0.193E-02    0.218E-02
RMM:   4    -0.115906183892E+04    0.13043E-05   -0.25226E-05  6544   0.667E-03    0.142E-02
RMM:   5    -0.115906183974E+04   -0.81801E-06   -0.68292E-06  5982   0.456E-03    0.538E-03
RMM:   6    -0.115906184051E+04   -0.77349E-06   -0.36561E-06  4550   0.302E-03    0.332E-03
RMM:   7    -0.115906184094E+04   -0.42499E-06   -0.18119E-06  3667   0.265E-03    0.266E-03
RMM:   8    -0.115906184151E+04   -0.57505E-06   -0.14563E-06  3155   0.230E-03
   6 F= -.11590618E+04 E0= -.11590618E+04  d E =-.299089E-03  mag=     6.0000
       N       E                     dE             d eps       ncg     rms          rms(c)
DAV:   1    -0.115906197637E+04   -0.13543E-03   -0.26607E-02 12032   0.180E-01    0.319E-02
RMM:   2    -0.115906203316E+04   -0.56789E-04   -0.60019E-04  9979   0.312E-02    0.210E-02
RMM:   3    -0.115906203472E+04   -0.15657E-05   -0.36026E-05  6389   0.134E-02    0.134E-02
RMM:   4    -0.115906203483E+04   -0.10700E-06   -0.12768E-05  6098   0.503E-03    0.882E-03
RMM:   5    -0.115906203529E+04   -0.45501E-06   -0.37805E-06  5180   0.351E-03    0.445E-03
RMM:   6    -0.115906203580E+04   -0.51339E-06   -0.20009E-06  3702   0.249E-03    0.254E-03
RMM:   7    -0.115906203612E+04   -0.31668E-06   -0.10581E-06  2885   0.224E-03    0.222E-03
RMM:   8    -0.115906203650E+04   -0.38584E-06   -0.70891E-07  2344   0.205E-03
   7 F= -.11590620E+04 E0= -.11590620E+04  d E =-.194988E-03  mag=     6.0000
       N       E                     dE             d eps       ncg     rms          rms(c)
DAV:   1    -0.115906215971E+04   -0.12359E-03   -0.21840E-02 11984   0.163E-01    0.289E-02
RMM:   2    -0.115906220563E+04   -0.45919E-04   -0.48246E-04  9189   0.280E-02    0.189E-02
RMM:   3    -0.115906220770E+04   -0.20699E-05   -0.32291E-05  6241   0.126E-02    0.119E-02
RMM:   4    -0.115906220794E+04   -0.23807E-06   -0.10803E-05  5862   0.466E-03    0.782E-03
RMM:   5    -0.115906220834E+04   -0.40760E-06   -0.31964E-06  4859   0.339E-03    0.366E-03
RMM:   6    -0.115906220882E+04   -0.48084E-06   -0.17475E-06  3437   0.234E-03    0.222E-03
RMM:   7    -0.115906220913E+04   -0.30841E-06   -0.88450E-07  2720   0.221E-03    0.212E-03
RMM:   8    -0.115906220945E+04   -0.31738E-06   -0.47756E-07  2113   0.197E-03
   8 F= -.11590622E+04 E0= -.11590622E+04  d E =-.172948E-03  mag=     6.0000
       N       E                     dE             d eps       ncg     rms          rms(c)
DAV:   1    -0.115906231144E+04   -0.10231E-03   -0.12751E-02 12136   0.125E-01    0.226E-02
RMM:   2    -0.115906233767E+04   -0.26233E-04   -0.26973E-04  7615   0.214E-02    0.149E-02
RMM:   3    -0.115906234011E+04   -0.24373E-05   -0.23357E-05  6115   0.104E-02    0.915E-03
RMM:   4    -0.115906234057E+04   -0.45799E-06   -0.73520E-06  5418   0.408E-03    0.717E-03
RMM:   5    -0.115906234085E+04   -0.27906E-06   -0.25246E-06  4322   0.318E-03    0.394E-03
RMM:   6    -0.115906234123E+04   -0.38736E-06   -0.11091E-06  2677   0.216E-03    0.207E-03
RMM:   7    -0.115906234151E+04   -0.27262E-06   -0.74461E-07  2343   0.214E-03    0.194E-03
RMM:   8    -0.115906234168E+04   -0.17667E-06   -0.30685E-07  1703   0.193E-03
   9 F= -.11590623E+04 E0= -.11590623E+04  d E =-.132233E-03  mag=     6.0000
       N       E                     dE             d eps       ncg     rms          rms(c)
DAV:   1    -0.115906241742E+04   -0.75912E-04   -0.53653E-03 11144   0.810E-02    0.150E-02
RMM:   2    -0.115906242880E+04   -0.11386E-04   -0.11627E-04  6513   0.144E-02    0.951E-03
RMM:   3    -0.115906243042E+04   -0.16130E-05   -0.11643E-05  5872   0.697E-03    0.640E-03
RMM:   4    -0.115906243075E+04   -0.33680E-06   -0.35269E-06  4646   0.306E-03    0.511E-03
RMM:   5    -0.115906243103E+04   -0.27630E-06   -0.13549E-06  3373   0.254E-03    0.276E-03
RMM:   6    -0.115906243134E+04   -0.30592E-06   -0.45711E-07  1885   0.189E-03    0.179E-03
RMM:   7    -0.115906243154E+04   -0.19955E-06   -0.30265E-07  1710   0.189E-03    0.174E-03
RMM:   8    -0.115906243170E+04   -0.16147E-06   -0.22446E-07  1509   0.185E-03
  10 F= -.11590624E+04 E0= -.11590624E+04  d E =-.900144E-04  mag=     6.0000
       N       E                     dE             d eps       ncg     rms          rms(c)
DAV:   1    -0.115906241092E+04    0.20621E-04   -0.29678E-04  9368   0.189E-02    0.396E-03
RMM:   2    -0.115906241164E+04   -0.71987E-06   -0.58728E-06  5179   0.352E-03    0.280E-03
RMM:   3    -0.115906241182E+04   -0.18290E-06   -0.24218E-07  2154   0.187E-03    0.216E-03
RMM:   4    -0.115906241198E+04   -0.16362E-06   -0.66654E-08  1147   0.168E-03    0.179E-03
RMM:   5    -0.115906241229E+04   -0.30502E-06   -0.26263E-07  1496   0.184E-03    0.151E-03
RMM:   6    -0.115906241244E+04   -0.15360E-06   -0.14497E-07  1260   0.177E-03    0.151E-03
RMM:   7    -0.115906241257E+04   -0.13139E-06   -0.13601E-07  1205   0.175E-03    0.141E-03
RMM:   8    -0.115906241324E+04   -0.66873E-06   -0.14059E-06  2929   0.238E-03
  11 F= -.11590624E+04 E0= -.11590624E+04  d E =0.184569E-04  mag=     6.0000
       N       E                     dE             d eps       ncg     rms          rms(c)
DAV:   1    -0.115906138703E+04    0.10255E-02   -0.20067E-01 12080   0.497E-01    0.956E-02
RMM:   2    -0.115906181084E+04   -0.42381E-03   -0.47694E-03 12460   0.854E-02    0.653E-02
RMM:   3    -0.115906179758E+04    0.13265E-04   -0.21805E-04  7775   0.316E-02    0.420E-02
RMM:   4    -0.115906178327E+04    0.14307E-04   -0.74908E-05  6856   0.115E-02    0.230E-02
RMM:   5    -0.115906178442E+04   -0.11439E-05   -0.18165E-05  6453   0.743E-03    0.683E-03
RMM:   6    -0.115906178555E+04   -0.11321E-05   -0.82198E-06  6051   0.461E-03    0.521E-03
RMM:   7    -0.115906178609E+04   -0.54327E-06   -0.40205E-06  5074   0.359E-03    0.364E-03
RMM:   8    -0.115906178665E+04   -0.55486E-06   -0.25625E-06  3979   0.263E-03
  12 F= -.11590618E+04 E0= -.11590618E+04  d E =0.626595E-03  mag=     6.0000
       N       E                     dE             d eps       ncg     rms          rms(c)
DAV:   1    -0.115906154076E+04    0.24533E-03   -0.40076E-02 12112   0.235E-01    0.534E-02
RMM:   2    -0.115906162344E+04   -0.82678E-04   -0.10334E-03 12107   0.415E-02    0.392E-02
RMM:   3    -0.115906162043E+04    0.30068E-05   -0.50300E-05  6633   0.171E-02    0.246E-02
RMM:   4    -0.115906161788E+04    0.25558E-05   -0.24892E-05  6378   0.627E-03    0.137E-02
RMM:   5    -0.115906161813E+04   -0.25728E-06   -0.59469E-06  5996   0.440E-03    0.502E-03
RMM:   6    -0.115906161859E+04   -0.45705E-06   -0.29239E-06  4528   0.275E-03    0.345E-03
RMM:   7    -0.115906161885E+04   -0.25959E-06   -0.14015E-06  3617   0.263E-03    0.245E-03
RMM:   8    -0.115906161916E+04   -0.31557E-06   -0.67403E-07  2630   0.208E-03
  13 F= -.11590616E+04 E0= -.11590616E+04  d E =0.167481E-03  mag=     6.0000
       N       E                     dE             d eps       ncg     rms          rms(c)
DAV:   1    -0.115906118647E+04    0.43238E-03   -0.59635E-02 12176   0.283E-01    0.563E-02
RMM:   2    -0.115906131607E+04   -0.12960E-03   -0.14846E-03 12137   0.487E-02    0.385E-02
RMM:   3    -0.115906131321E+04    0.28613E-05   -0.68019E-05  6884   0.195E-02    0.248E-02
RMM:   4    -0.115906131109E+04    0.21207E-05   -0.29935E-05  6740   0.681E-03    0.138E-02
RMM:   5    -0.115906131174E+04   -0.65006E-06   -0.64771E-06  6300   0.451E-03    0.455E-03
RMM:   6    -0.115906131229E+04   -0.55182E-06   -0.33328E-06  4914   0.293E-03    0.340E-03
RMM:   7    -0.115906131260E+04   -0.31372E-06   -0.16165E-06  3881   0.268E-03    0.252E-03
RMM:   8    -0.115906131298E+04   -0.37854E-06   -0.91788E-07  2842   0.214E-03
  14 F= -.11590613E+04 E0= -.11590613E+04  d E =0.306183E-03  mag=     6.0000
       N       E                     dE             d eps       ncg     rms          rms(c)
DAV:   1    -0.115906035779E+04    0.95481E-03   -0.17743E-01 12176   0.474E-01    0.847E-02
RMM:   2    -0.115906075231E+04   -0.39451E-03   -0.42244E-03 12616   0.803E-02    0.563E-02
RMM:   3    -0.115906074516E+04    0.71464E-05   -0.18573E-04  7618   0.291E-02    0.365E-02
RMM:   4    -0.115906073774E+04    0.74247E-05   -0.56910E-05  6969   0.103E-02    0.206E-02
RMM:   5    -0.115906073936E+04   -0.16254E-05   -0.15603E-05  6686   0.691E-03    0.592E-03
RMM:   6    -0.115906074060E+04   -0.12359E-05   -0.79532E-06  6397   0.447E-03    0.450E-03
RMM:   7    -0.115906074119E+04   -0.59094E-06   -0.41971E-06  5636   0.370E-03    0.310E-03
RMM:   8    -0.115906074190E+04   -0.71272E-06   -0.27128E-06  4251   0.271E-03
  15 F= -.11590607E+04 E0= -.11590607E+04  d E =0.571079E-03  mag=     6.0000
       N       E                     dE             d eps       ncg     rms          rms(c)
DAV:   1    -0.115905936735E+04    0.13738E-02   -0.28533E-01 12160   0.595E-01    0.105E-01
RMM:   2    -0.115906000120E+04   -0.63385E-03   -0.66698E-03 12614   0.100E-01    0.682E-02
RMM:   3    -0.115905999443E+04    0.67702E-05   -0.31757E-04  8504   0.373E-02    0.444E-02
RMM:   4    -0.115905998176E+04    0.12673E-04   -0.81883E-05  7049   0.124E-02    0.241E-02
RMM:   5    -0.115905998442E+04   -0.26645E-05   -0.24401E-05  6813   0.854E-03    0.792E-03
RMM:   6    -0.115905998628E+04   -0.18536E-05   -0.12261E-05  6631   0.559E-03    0.559E-03
RMM:   7    -0.115905998716E+04   -0.88073E-06   -0.65531E-06  6104   0.442E-03    0.365E-03
RMM:   8    -0.115905998812E+04   -0.96328E-06   -0.44147E-06  4963   0.325E-03
  16 F= -.11590600E+04 E0= -.11590600E+04  d E =0.753783E-03  mag=     6.0000
       N       E                     dE             d eps       ncg     rms          rms(c)
DAV:   1    -0.115905929099E+04    0.69617E-03   -0.11108E-01 12048   0.369E-01    0.638E-02
RMM:   2    -0.115905953765E+04   -0.24666E-03   -0.25815E-03 12256   0.620E-02    0.414E-02
RMM:   3    -0.115905953487E+04    0.27739E-05   -0.11803E-04  7174   0.243E-02    0.270E-02
RMM:   4    -0.115905953195E+04    0.29268E-05   -0.38825E-05  6707   0.802E-03    0.169E-02
RMM:   5    -0.115905953314E+04   -0.11964E-05   -0.10728E-05  6364   0.547E-03    0.629E-03
RMM:   6    -0.115905953415E+04   -0.10130E-05   -0.57165E-06  5561   0.377E-03    0.404E-03
RMM:   7    -0.115905953470E+04   -0.54558E-06   -0.31051E-06  4761   0.308E-03    0.295E-03
RMM:   8    -0.115905953537E+04   -0.67019E-06   -0.22081E-06  4013   0.263E-03
  17 F= -.11590595E+04 E0= -.11590595E+04  d E =0.452749E-03  mag=     6.0000
       N       E                     dE             d eps       ncg     rms          rms(c)
DAV:   1    -0.115905945748E+04    0.77216E-04   -0.47962E-01 12192   0.766E-01    0.136E-01
RMM:   2    -0.115906051101E+04   -0.10535E-02   -0.11073E-02 12645   0.129E-01    0.883E-02
RMM:   3    -0.115906050073E+04    0.10277E-04   -0.50817E-04  9120   0.457E-02    0.569E-02
RMM:   4    -0.115906047403E+04    0.26698E-04   -0.12039E-04  7112   0.153E-02    0.291E-02
RMM:   5    -0.115906047763E+04   -0.35965E-05   -0.34530E-05  6410   0.103E-02    0.762E-03
RMM:   6    -0.115906047983E+04   -0.21976E-05   -0.14345E-05  6056   0.642E-03    0.551E-03
RMM:   7    -0.115906048074E+04   -0.91478E-06   -0.70032E-06  5625   0.454E-03    0.400E-03
RMM:   8    -0.115906048152E+04   -0.78404E-06   -0.43009E-06  4533   0.325E-03
  18 F= -.11590605E+04 E0= -.11590605E+04  d E =-.946154E-03  mag=     6.0000
       N       E                     dE             d eps       ncg     rms          rms(c)
DAV:   1    -0.115905398804E+04    0.64927E-02   -0.42508E+00 12624   0.230E+00    0.409E-01
RMM:   2    -0.115906336327E+04   -0.93752E-02   -0.99300E-02 12784   0.387E-01    0.269E-01
RMM:   3    -0.115906329008E+04    0.73187E-04   -0.50228E-03 12601   0.142E-01    0.174E-01
RMM:   4    -0.115906309156E+04    0.19852E-03   -0.14366E-03 13294   0.434E-02    0.872E-02
RMM:   5    -0.115906310291E+04   -0.11354E-04   -0.24892E-04  8534   0.221E-02    0.246E-02
RMM:   6    -0.115906311447E+04   -0.11553E-04   -0.82584E-05  7288   0.134E-02    0.155E-02
RMM:   7    -0.115906311954E+04   -0.50704E-05   -0.41945E-05  7067   0.105E-02    0.115E-02
RMM:   8    -0.115906312335E+04   -0.38136E-05   -0.29631E-05  6911   0.782E-03
  19 F= -.11590631E+04 E0= -.11590631E+04  d E =-.264182E-02  mag=     6.0000
       N       E                     dE             d eps       ncg     rms          rms(c)
DAV:   1    -0.115906329095E+04   -0.17141E-03   -0.87342E-02 12528   0.325E-01    0.590E-02
RMM:   2    -0.115906349799E+04   -0.20705E-03   -0.21130E-03 12416   0.568E-02    0.379E-02
RMM:   3    -0.115906349580E+04    0.21961E-05   -0.10038E-04  7155   0.209E-02    0.245E-02
RMM:   4    -0.115906349394E+04    0.18567E-05   -0.34419E-05  6861   0.786E-03    0.137E-02
RMM:   5    -0.115906349563E+04   -0.16906E-05   -0.12392E-05  6640   0.586E-03    0.575E-03
RMM:   6    -0.115906349697E+04   -0.13441E-05   -0.72619E-06  5879   0.395E-03    0.363E-03
RMM:   7    -0.115906349777E+04   -0.79779E-06   -0.41785E-06  5280   0.356E-03    0.335E-03
RMM:   8    -0.115906349898E+04   -0.12086E-05   -0.37552E-06  4950   0.299E-03
  20 F= -.11590635E+04 E0= -.11590635E+04  d E =-.375632E-03  mag=     6.0000
       N       E                     dE             d eps       ncg     rms          rms(c)
DAV:   1    -0.115906351242E+04   -0.14645E-04   -0.25667E-01 12096   0.557E-01    0.100E-01
RMM:   2    -0.115906409681E+04   -0.58440E-03   -0.59560E-03 12773   0.947E-02    0.634E-02
RMM:   3    -0.115906409443E+04    0.23879E-05   -0.26976E-04  8137   0.333E-02    0.407E-02
RMM:   4    -0.115906408447E+04    0.99516E-05   -0.65144E-05  6972   0.115E-02    0.230E-02
RMM:   5    -0.115906408627E+04   -0.17998E-05   -0.24581E-05  6723   0.812E-03    0.799E-03
RMM:   6    -0.115906408825E+04   -0.19767E-05   -0.11250E-05  6386   0.556E-03    0.567E-03
RMM:   7    -0.115906408924E+04   -0.98445E-06   -0.59667E-06  5785   0.400E-03    0.383E-03
RMM:   8    -0.115906409058E+04   -0.13454E-05   -0.43768E-06  5283   0.343E-03
  21 F= -.11590641E+04 E0= -.11590641E+04  d E =-.591600E-03  mag=     6.0000
       N       E                     dE             d eps       ncg     rms          rms(c)
DAV:   1    -0.115906421869E+04   -0.12945E-03   -0.18894E-02 12656   0.152E-01    0.297E-02
RMM:   2    -0.115906425906E+04   -0.40372E-04   -0.42104E-04  9003   0.264E-02    0.194E-02
RMM:   3    -0.115906426135E+04   -0.22908E-05   -0.31305E-05  6544   0.122E-02    0.118E-02
RMM:   4    -0.115906426163E+04   -0.28455E-06   -0.11415E-05  6037   0.479E-03    0.776E-03
RMM:   5    -0.115906426225E+04   -0.61473E-06   -0.41755E-06  5149   0.368E-03    0.419E-03
RMM:   6    -0.115906426288E+04   -0.63435E-06   -0.23928E-06  3964   0.252E-03    0.251E-03
RMM:   7    -0.115906426332E+04   -0.43740E-06   -0.13383E-06  3421   0.245E-03    0.237E-03
RMM:   8    -0.115906426376E+04   -0.43843E-06   -0.80980E-07  2507   0.208E-03
  22 F= -.11590643E+04 E0= -.11590643E+04  d E =-.173177E-03  mag=     6.0000
       N       E                     dE             d eps       ncg     rms          rms(c)
DAV:   1    -0.115906434429E+04   -0.80969E-04   -0.61238E-03 11800   0.868E-02    0.172E-02
RMM:   2    -0.115906435756E+04   -0.13273E-04   -0.13046E-04  6732   0.152E-02    0.110E-02
RMM:   3    -0.115906435949E+04   -0.19313E-05   -0.13161E-05  5940   0.732E-03    0.698E-03
RMM:   4    -0.115906435989E+04   -0.39773E-06   -0.41327E-06  4722   0.321E-03    0.554E-03
RMM:   5    -0.115906436025E+04   -0.36041E-06   -0.17001E-06  3822   0.272E-03    0.292E-03
RMM:   6    -0.115906436067E+04   -0.41975E-06   -0.70668E-07  2245   0.199E-03    0.191E-03
RMM:   7    -0.115906436091E+04   -0.24037E-06   -0.48757E-07  2031   0.197E-03    0.181E-03
RMM:   8    -0.115906436117E+04   -0.26026E-06   -0.39783E-07  1885   0.192E-03
  23 F= -.11590644E+04 E0= -.11590644E+04  d E =-.974139E-04  mag=     6.0000
       N       E                     dE             d eps       ncg     rms          rms(c)
DAV:   1    -0.115906436882E+04   -0.79072E-05   -0.34573E-05  7088   0.742E-03    0.286E-03
RMM:   2    -0.115906436933E+04   -0.51163E-06   -0.33927E-06  4508   0.364E-03    0.257E-03
RMM:   3    -0.115906436948E+04   -0.14539E-06   -0.42412E-07  1643   0.181E-03    0.181E-03
RMM:   4    -0.115906436957E+04   -0.92259E-07   -0.12247E-07  1159   0.174E-03    0.154E-03
RMM:   5    -0.115906436976E+04   -0.19616E-06   -0.20314E-07  1267   0.176E-03    0.180E-03
RMM:   6    -0.115906437029E+04   -0.52588E-06   -0.83863E-07  2431   0.208E-03    0.195E-03
RMM:   7    -0.115906437053E+04   -0.23801E-06   -0.36260E-07  1646   0.176E-03    0.199E-03
RMM:   8    -0.115906437080E+04   -0.27039E-06   -0.41097E-07  1680   0.174E-03
  24 F= -.11590644E+04 E0= -.11590644E+04  d E =-.962662E-05  mag=     6.0000
       N       E                     dE             d eps       ncg     rms          rms(c)
DAV:   1    -0.115906439297E+04   -0.22446E-04   -0.94717E-03 12144   0.106E-01    0.313E-02
RMM:   2    -0.115906440517E+04   -0.12193E-04   -0.22651E-04  7244   0.198E-02    0.251E-02
RMM:   3    -0.115906440537E+04   -0.20683E-06   -0.21478E-05  5987   0.905E-03    0.143E-02
RMM:   4    -0.115906440325E+04    0.21283E-05   -0.89603E-06  5325   0.433E-03    0.106E-02
RMM:   5    -0.115906440293E+04    0.31965E-06   -0.35591E-06  4842   0.334E-03    0.369E-03
RMM:   6    -0.115906440320E+04   -0.27065E-06   -0.11787E-06  3404   0.225E-03    0.248E-03
RMM:   7    -0.115906440338E+04   -0.18407E-06   -0.44164E-07  2680   0.207E-03    0.188E-03
RMM:   8    -0.115906440362E+04   -0.23613E-06   -0.30601E-07  2169   0.195E-03
  25 F= -.11590644E+04 E0= -.11590644E+04  d E =-.328181E-04  mag=     6.0000
       N       E                     dE             d eps       ncg     rms          rms(c)
DAV:   1    -0.115906440498E+04   -0.16029E-05   -0.20648E-01 12096   0.498E-01    0.986E-02
RMM:   2    -0.115906488051E+04   -0.47552E-03   -0.47269E-03 12737   0.845E-02    0.612E-02
RMM:   3    -0.115906488362E+04   -0.31088E-05   -0.21096E-04  7752   0.299E-02    0.381E-02
RMM:   4    -0.115906487539E+04    0.82269E-05   -0.50841E-05  6776   0.104E-02    0.224E-02
RMM:   5    -0.115906487579E+04   -0.39942E-06   -0.20374E-05  6385   0.734E-03    0.784E-03
RMM:   6    -0.115906487733E+04   -0.15378E-05   -0.87767E-06  5900   0.499E-03    0.498E-03
RMM:   7    -0.115906487802E+04   -0.69871E-06   -0.42721E-06  5038   0.347E-03    0.349E-03
RMM:   8    -0.115906487880E+04   -0.77485E-06   -0.26655E-06  4095   0.285E-03
  26 F= -.11590649E+04 E0= -.11590649E+04  d E =-.475183E-03  mag=     6.0000
