       N       E                     dE             d eps       ncg     rms          rms(c)
DAV:   1     0.121083159538E+05    0.12108E+05   -0.42697E+05 12320   0.132E+03
DAV:   2     0.700243852201E+03   -0.11408E+05   -0.10193E+05 12304   0.380E+02
DAV:   3    -0.136566539967E+04   -0.20659E+04   -0.19907E+04 13192   0.168E+02
DAV:   4    -0.150645382407E+04   -0.14079E+03   -0.13848E+03 16184   0.461E+01
DAV:   5    -0.151561400077E+04   -0.91602E+01   -0.91195E+01 22112   0.109E+01    0.182E+02
RMM:   6    -0.117210564436E+04    0.34351E+03   -0.16420E+03 12534   0.357E+01    0.123E+02
RMM:   7    -0.115612799644E+04    0.15978E+02   -0.59141E+01 12796   0.118E+01    0.721E+01
RMM:   8    -0.115960666980E+04   -0.34787E+01   -0.20321E+01 13902   0.497E+00    0.346E+01
RMM:   9    -0.116396415900E+04   -0.43575E+01   -0.69132E+00 12998   0.322E+00    0.107E+01
RMM:  10    -0.116512336567E+04   -0.11592E+01   -0.16896E+00 14032   0.138E+00    0.678E+00
RMM:  11    -0.116630525796E+04   -0.11819E+01   -0.13722E+00 14686   0.926E-01    0.411E+00
RMM:  12    -0.116706475578E+04   -0.75950E+00   -0.70707E-01 13753   0.808E-01    0.205E+00
RMM:  13    -0.116722278435E+04   -0.15803E+00   -0.21184E-01 15345   0.433E-01    0.134E+00
RMM:  14    -0.116727691853E+04   -0.54134E-01   -0.11031E-01 14459   0.288E-01    0.736E-01
RMM:  15    -0.116728550345E+04   -0.85849E-02   -0.31634E-02 15671   0.163E-01    0.537E-01
RMM:  16    -0.116728718439E+04   -0.16809E-02   -0.12947E-02 16788   0.896E-02    0.296E-01
RMM:  17    -0.116728753025E+04   -0.34586E-03   -0.41824E-03 14394   0.585E-02    0.135E-01
RMM:  18    -0.116728765367E+04   -0.12342E-03   -0.20029E-03 13202   0.286E-02    0.718E-02
RMM:  19    -0.116728772854E+04   -0.74867E-04   -0.91796E-04 10459   0.204E-02
   1 F= -.11672877E+04 E0= -.11672877E+04  d E =-.116729E+04  mag=    10.0021
       N       E                     dE             d eps       ncg     rms          rms(c)
DAV:   1    -0.115365665553E+04    0.13631E+02   -0.13897E+03 13000   0.374E+01    0.241E+01
RMM:   2    -0.116614703404E+04   -0.12490E+02   -0.14595E+02 12292   0.984E+00    0.156E+01
RMM:   3    -0.116461493886E+04    0.15321E+01   -0.61312E+00 12737   0.301E+00    0.951E+00
RMM:   4    -0.116474642778E+04   -0.13149E+00   -0.25973E+00 14131   0.105E+00    0.668E+00
RMM:   5    -0.116448540947E+04    0.26102E+00   -0.91293E-01 13625   0.582E-01    0.253E+00
RMM:   6    -0.116443934635E+04    0.46063E-01   -0.10765E-01 15388   0.254E-01    0.124E+00
RMM:   7    -0.116443390090E+04    0.54454E-02   -0.35177E-02 17965   0.130E-01    0.672E-01
RMM:   8    -0.116443437492E+04   -0.47402E-03   -0.10505E-02 17631   0.776E-02    0.263E-01
RMM:   9    -0.116443423546E+04    0.13945E-03   -0.29563E-03 16388   0.398E-02    0.121E-01
RMM:  10    -0.116443426694E+04   -0.31480E-04   -0.14481E-03 13790   0.254E-02    0.513E-02
RMM:  11    -0.116443431835E+04   -0.51411E-04   -0.54244E-04 10272   0.172E-02
   2 F= -.11644343E+04 E0= -.11644343E+04  d E =0.285341E+01  mag=    10.0001
       N       E                     dE             d eps       ncg     rms          rms(c)
DAV:   1    -0.116720972365E+04   -0.27755E+01   -0.28285E+02 13344   0.154E+01    0.115E+01
RMM:   2    -0.116768078550E+04   -0.47106E+00   -0.10539E+01 12301   0.365E+00    0.961E+00
RMM:   3    -0.116755432032E+04    0.12647E+00   -0.68439E-01 13107   0.102E+00    0.568E+00
RMM:   4    -0.116751457424E+04    0.39746E-01   -0.66448E-01 12627   0.717E-01    0.303E+00
RMM:   5    -0.116744407373E+04    0.70501E-01   -0.15704E-01 13638   0.336E-01    0.121E+00
RMM:   6    -0.116743977269E+04    0.43010E-02   -0.18458E-02 14885   0.129E-01    0.792E-01
RMM:   7    -0.116743880004E+04    0.97265E-03   -0.52610E-03 15532   0.663E-02    0.554E-01
RMM:   8    -0.116743886946E+04   -0.69420E-04   -0.22250E-03 14135   0.420E-02    0.175E-01
RMM:   9    -0.116743880195E+04    0.67508E-04   -0.75799E-04 13042   0.230E-02
   3 F= -.11674388E+04 E0= -.11674388E+04  d E =-.300448E+01  mag=    10.0000
       N       E                     dE             d eps       ncg     rms          rms(c)
DAV:   1    -0.116792088538E+04   -0.48202E+00   -0.12325E+02 13056   0.114E+01    0.428E+00
RMM:   2    -0.116821575389E+04   -0.29487E+00   -0.41621E+00 12292   0.223E+00    0.491E+00
RMM:   3    -0.116816680995E+04    0.48944E-01   -0.17321E-01 13728   0.524E-01    0.355E+00
RMM:   4    -0.116815246256E+04    0.14347E-01   -0.87210E-02 12910   0.281E-01    0.165E+00
RMM:   5    -0.116813705517E+04    0.15407E-01   -0.28228E-02 12437   0.167E-01    0.503E-01
RMM:   6    -0.116813654838E+04    0.50679E-03   -0.24690E-03 12828   0.507E-02    0.211E-01
RMM:   7    -0.116813627733E+04    0.27105E-03   -0.90799E-04 12079   0.237E-02    0.126E-01
RMM:   8    -0.116813621578E+04    0.61554E-04   -0.36937E-04  9751   0.186E-02
   4 F= -.11681362E+04 E0= -.11681362E+04  d E =-.697414E+00  mag=    10.0000
       N       E                     dE             d eps       ncg     rms          rms(c)
DAV:   1    -0.116844138774E+04   -0.30511E+00   -0.27189E+01 13064   0.481E+00    0.230E+00
RMM:   2    -0.116849143815E+04   -0.50050E-01   -0.80700E-01 12293   0.945E-01    0.169E+00
RMM:   3    -0.116848246928E+04    0.89689E-02   -0.58294E-02 12805   0.268E-01    0.917E-01
RMM:   4    -0.116847623458E+04    0.62347E-02   -0.22436E-02 12759   0.139E-01    0.426E-01
RMM:   5    -0.116847497092E+04    0.12637E-02   -0.45329E-03 12926   0.659E-02    0.222E-01
RMM:   6    -0.116847493870E+04    0.32222E-04   -0.75426E-04 12078   0.224E-02    0.142E-01
RMM:   7    -0.116847494555E+04   -0.68543E-05   -0.27611E-04  9439   0.166E-02    0.731E-02
RMM:   8    -0.116847495627E+04   -0.10721E-04   -0.12864E-04  8256   0.137E-02
   5 F= -.11684750E+04 E0= -.11684750E+04  d E =-.338740E+00  mag=    10.0000
       N       E                     dE             d eps       ncg     rms          rms(c)
DAV:   1    -0.116855608298E+04   -0.81137E-01   -0.28617E+01 12800   0.548E+00    0.240E+00
RMM:   2    -0.116863158471E+04   -0.75502E-01   -0.94138E-01 12288   0.110E+00    0.224E+00
RMM:   3    -0.116862362764E+04    0.79571E-02   -0.54696E-02 13761   0.286E-01    0.152E+00
RMM:   4    -0.116862003110E+04    0.35965E-02   -0.28148E-02 12944   0.158E-01    0.599E-01
RMM:   5    -0.116861781294E+04    0.22182E-02   -0.57875E-03 13182   0.711E-02    0.219E-01
RMM:   6    -0.116861774154E+04    0.71399E-04   -0.57560E-04 11318   0.243E-02    0.113E-01
RMM:   7    -0.116861774169E+04   -0.15131E-06   -0.25184E-04  9174   0.145E-02    0.613E-02
RMM:   8    -0.116861774729E+04   -0.55957E-05   -0.11391E-04  7849   0.115E-02
   6 F= -.11686177E+04 E0= -.11686177E+04  d E =-.142791E+00  mag=    10.0000
       N       E                     dE             d eps       ncg     rms          rms(c)
DAV:   1    -0.116862150291E+04   -0.37612E-02   -0.10412E+01 12976   0.362E+00    0.115E+00
RMM:   2    -0.116864799858E+04   -0.26496E-01   -0.28179E-01 12292   0.669E-01    0.983E-01
RMM:   3    -0.116864807276E+04   -0.74176E-04   -0.15144E-02 13162   0.196E-01    0.620E-01
RMM:   4    -0.116864684494E+04    0.12278E-02   -0.48354E-03 13703   0.719E-02    0.320E-01
RMM:   5    -0.116864663369E+04    0.21124E-03   -0.19939E-03 12888   0.420E-02    0.235E-01
RMM:   6    -0.116864659726E+04    0.36437E-04   -0.32327E-04  9659   0.198E-02    0.650E-02
RMM:   7    -0.116864659308E+04    0.41781E-05   -0.94500E-05  7614   0.110E-02    0.365E-02
RMM:   8    -0.116864659712E+04   -0.40379E-05   -0.61031E-05  7264   0.941E-03
   7 F= -.11686466E+04 E0= -.11686466E+04  d E =-.288498E-01  mag=    10.0000
       N       E                     dE             d eps       ncg     rms          rms(c)
DAV:   1    -0.116864384633E+04    0.27468E-02   -0.65696E+00 12848   0.282E+00    0.916E-01
RMM:   2    -0.116865986463E+04   -0.16018E-01   -0.19420E-01 12288   0.522E-01    0.932E-01
RMM:   3    -0.116865886936E+04    0.99527E-03   -0.98928E-03 13210   0.143E-01    0.674E-01
RMM:   4    -0.116865832702E+04    0.54234E-03   -0.44972E-03 12322   0.661E-02    0.333E-01
RMM:   5    -0.116865779356E+04    0.53346E-03   -0.13987E-03 11622   0.369E-02    0.103E-01
RMM:   6    -0.116865777774E+04    0.15818E-04   -0.11388E-04  7913   0.130E-02    0.548E-02
RMM:   7    -0.116865777205E+04    0.56904E-05   -0.61198E-05  7310   0.893E-03    0.312E-02
RMM:   8    -0.116865777184E+04    0.20614E-06   -0.39006E-05  7095   0.777E-03
   8 F= -.11686578E+04 E0= -.11686578E+04  d E =-.111747E-01  mag=    10.0000
       N       E                     dE             d eps       ncg     rms          rms(c)
DAV:   1    -0.116866364223E+04   -0.58702E-02   -0.91604E+00 12768   0.341E+00    0.791E-01
RMM:   2    -0.116868431245E+04   -0.20670E-01   -0.22619E-01 12301   0.581E-01    0.599E-01
RMM:   3    -0.116868412569E+04    0.18676E-03   -0.11769E-02 12780   0.184E-01    0.394E-01
RMM:   4    -0.116868344565E+04    0.68004E-03   -0.36305E-03 13762   0.620E-02    0.200E-01
RMM:   5    -0.116868331483E+04    0.13082E-03   -0.10359E-03 12219   0.315E-02    0.117E-01
RMM:   6    -0.116868331772E+04   -0.28930E-05   -0.14209E-04  7914   0.136E-02    0.439E-02
RMM:   7    -0.116868332210E+04   -0.43829E-05   -0.68236E-05  7304   0.990E-03    0.249E-02
RMM:   8    -0.116868332706E+04   -0.49530E-05   -0.53643E-05  7132   0.855E-03
   9 F= -.11686833E+04 E0= -.11686833E+04  d E =-.255552E-01  mag=    10.0000
       N       E                     dE             d eps       ncg     rms          rms(c)
DAV:   1    -0.116867042223E+04    0.12900E-01   -0.14170E+01 12848   0.426E+00    0.844E-01
RMM:   2    -0.116870241198E+04   -0.31990E-01   -0.33776E-01 12308   0.709E-01    0.610E-01
RMM:   3    -0.116870241004E+04    0.19448E-05   -0.16974E-02 12650   0.230E-01    0.401E-01
RMM:   4    -0.116870162945E+04    0.78058E-03   -0.47284E-03 15096   0.712E-02    0.235E-01
RMM:   5    -0.116870147887E+04    0.15058E-03   -0.13181E-03 13364   0.340E-02    0.126E-01
RMM:   6    -0.116870150334E+04   -0.24464E-04   -0.24822E-04  8895   0.155E-02    0.377E-02
RMM:   7    -0.116870150958E+04   -0.62414E-05   -0.95973E-05  7720   0.114E-02    0.250E-02
RMM:   8    -0.116870151629E+04   -0.67108E-05   -0.93760E-05  7601   0.961E-03
  10 F= -.11687015E+04 E0= -.11687015E+04  d E =-.181892E-01  mag=    10.0000
       N       E                     dE             d eps       ncg     rms          rms(c)
DAV:   1    -0.116870258100E+04   -0.10714E-02   -0.40593E+00 12920   0.229E+00    0.420E-01
RMM:   2    -0.116871145234E+04   -0.88713E-02   -0.98129E-02 12306   0.380E-01    0.329E-01
RMM:   3    -0.116871131662E+04    0.13572E-03   -0.48041E-03 12294   0.123E-01    0.220E-01
RMM:   4    -0.116871111727E+04    0.19935E-03   -0.15237E-03 13230   0.396E-02    0.132E-01
RMM:   5    -0.116871104378E+04    0.73490E-04   -0.45421E-04 10851   0.218E-02    0.479E-02
RMM:   6    -0.116871104745E+04   -0.36639E-05   -0.63389E-05  7286   0.109E-02    0.200E-02
RMM:   7    -0.116871105068E+04   -0.32377E-05   -0.55426E-05  7070   0.835E-03    0.122E-02
RMM:   8    -0.116871105273E+04   -0.20434E-05   -0.34232E-05  6837   0.743E-03
  11 F= -.11687111E+04 E0= -.11687111E+04  d E =-.953644E-02  mag=    10.0000
       N       E                     dE             d eps       ncg     rms          rms(c)
DAV:   1    -0.116870913747E+04    0.19132E-02   -0.47171E+00 12744   0.247E+00    0.414E-01
RMM:   2    -0.116871933931E+04   -0.10202E-01   -0.11028E-01 12304   0.404E-01    0.266E-01
RMM:   3    -0.116871928893E+04    0.50381E-04   -0.54402E-03 12294   0.134E-01    0.174E-01
RMM:   4    -0.116871904996E+04    0.23897E-03   -0.15993E-03 13597   0.405E-02    0.906E-02
RMM:   5    -0.116871903680E+04    0.13159E-04   -0.29866E-04  9584   0.189E-02    0.369E-02
RMM:   6    -0.116871904500E+04   -0.82023E-05   -0.74897E-05  7327   0.111E-02    0.166E-02
RMM:   7    -0.116871904967E+04   -0.46690E-05   -0.52859E-05  7092   0.894E-03    0.116E-02
RMM:   8    -0.116871905241E+04   -0.27369E-05   -0.35860E-05  6756   0.729E-03
  12 F= -.11687191E+04 E0= -.11687191E+04  d E =-.799968E-02  mag=    10.0000
       N       E                     dE             d eps       ncg     rms          rms(c)
DAV:   1    -0.116871602727E+04    0.30224E-02   -0.46556E+00 12856   0.247E+00    0.411E-01
RMM:   2    -0.116872610522E+04   -0.10078E-01   -0.11003E-01 12302   0.406E-01    0.267E-01
RMM:   3    -0.116872604839E+04    0.56828E-04   -0.55105E-03 12294   0.135E-01    0.177E-01
RMM:   4    -0.116872585098E+04    0.19742E-03   -0.15667E-03 13893   0.405E-02    0.103E-01
RMM:   5    -0.116872580806E+04    0.42918E-04   -0.35166E-04 10167   0.200E-02    0.693E-02
RMM:   6    -0.116872581766E+04   -0.96048E-05   -0.10526E-04  7368   0.120E-02    0.225E-02
RMM:   7    -0.116872582179E+04   -0.41297E-05   -0.42784E-05  7067   0.894E-03    0.143E-02
RMM:   8    -0.116872582505E+04   -0.32536E-05   -0.38117E-05  6812   0.751E-03
  13 F= -.11687258E+04 E0= -.11687258E+04  d E =-.677264E-02  mag=    10.0000
       N       E                     dE             d eps       ncg     rms          rms(c)
DAV:   1    -0.116871987639E+04    0.59454E-02   -0.56234E+00 12760   0.272E+00    0.482E-01
RMM:   2    -0.116873244393E+04   -0.12568E-01   -0.13175E-01 12319   0.447E-01    0.290E-01
RMM:   3    -0.116873248394E+04   -0.40012E-04   -0.65709E-03 12276   0.149E-01    0.183E-01
RMM:   4    -0.116873222890E+04    0.25505E-03   -0.17753E-03 14468   0.428E-02    0.962E-02
RMM:   5    -0.116873222017E+04    0.87296E-05   -0.42323E-04 10683   0.206E-02    0.412E-02
RMM:   6    -0.116873222981E+04   -0.96431E-05   -0.96308E-05  7372   0.121E-02    0.179E-02
RMM:   7    -0.116873223418E+04   -0.43717E-05   -0.51764E-05  7131   0.906E-03    0.106E-02
RMM:   8    -0.116873223744E+04   -0.32616E-05   -0.44497E-05  6849   0.802E-03
  14 F= -.11687322E+04 E0= -.11687322E+04  d E =-.641240E-02  mag=    10.0000
