       N       E                     dE             d eps       ncg     rms          rms(c)
DAV:   1    -0.115712586683E+04   -0.11571E+04   -0.13350E-05  7472   0.791E-03    0.112E-02
RMM:   2    -0.115712586782E+04   -0.98703E-06   -0.85530E-06  6265   0.527E-03    0.186E-02
RMM:   3    -0.115712586839E+04   -0.57135E-06   -0.48581E-06  4775   0.285E-03    0.311E-03
RMM:   4    -0.115712586885E+04   -0.46087E-06   -0.23025E-06  3892   0.291E-03    0.510E-03
RMM:   5    -0.115712586909E+04   -0.23482E-06   -0.12637E-06  2761   0.221E-03    0.289E-03
RMM:   6    -0.115712586950E+04   -0.41339E-06   -0.95938E-07  2444   0.221E-03    0.264E-03
RMM:   7    -0.115712586995E+04   -0.44763E-06   -0.76295E-07  2401   0.211E-03    0.268E-03
RMM:   8    -0.115712587034E+04   -0.39615E-06   -0.75554E-07  2335   0.212E-03
   1 F= -.11571259E+04 E0= -.11571259E+04  d E =-.115713E+04  mag=    14.0000
       N       E                     dE             d eps       ncg     rms          rms(c)
DAV:   1    -0.115712603171E+04   -0.16176E-03   -0.27453E-01 12712   0.608E-01    0.204E-01
RMM:   2    -0.115712675189E+04   -0.72018E-03   -0.79517E-03 12315   0.116E-01    0.161E-01
RMM:   3    -0.115712674884E+04    0.30535E-05   -0.36860E-04  9922   0.383E-02    0.972E-02
RMM:   4    -0.115712668724E+04    0.61592E-04   -0.19872E-04  7803   0.167E-02    0.438E-02
RMM:   5    -0.115712668184E+04    0.54058E-05   -0.44540E-05  7070   0.101E-02    0.204E-02
RMM:   6    -0.115712668302E+04   -0.11800E-05   -0.13975E-05  6819   0.566E-03    0.140E-02
RMM:   7    -0.115712668366E+04   -0.64615E-06   -0.63736E-06  5813   0.382E-03    0.882E-03
RMM:   8    -0.115712668422E+04   -0.55401E-06   -0.39551E-06  5739   0.317E-03
   2 F= -.11571267E+04 E0= -.11571267E+04  d E =-.813874E-03  mag=    14.0000
       N       E                     dE             d eps       ncg     rms          rms(c)
DAV:   1    -0.115712710053E+04   -0.41687E-03   -0.63474E-02 12224   0.293E-01    0.744E-02
RMM:   2    -0.115712719510E+04   -0.94565E-04   -0.19384E-03 12123   0.569E-02    0.773E-02
RMM:   3    -0.115712717754E+04    0.17562E-04   -0.75949E-05  6894   0.181E-02    0.529E-02
RMM:   4    -0.115712716012E+04    0.17418E-04   -0.57539E-05  6917   0.903E-03    0.293E-02
RMM:   5    -0.115712715561E+04    0.45068E-05   -0.15341E-05  6287   0.570E-03    0.116E-02
RMM:   6    -0.115712715581E+04   -0.19603E-06   -0.57456E-06  5550   0.349E-03    0.908E-03
RMM:   7    -0.115712715603E+04   -0.21789E-06   -0.23437E-06  3797   0.275E-03    0.570E-03
RMM:   8    -0.115712715620E+04   -0.17905E-06   -0.13269E-06  2996   0.218E-03
   3 F= -.11571272E+04 E0= -.11571272E+04  d E =-.471986E-03  mag=    14.0000
