       N       E                     dE             d eps       ncg     rms          rms(c)
DAV:   1    -0.115722281911E+04   -0.11572E+04   -0.33466E-06  7744   0.293E-03    0.346E-03
RMM:   2    -0.115722281952E+04   -0.41332E-06   -0.11625E-06  3514   0.244E-03    0.466E-03
RMM:   3    -0.115722281962E+04   -0.98487E-07   -0.15245E-07  1522   0.164E-03    0.194E-03
RMM:   4    -0.115722281974E+04   -0.11691E-06   -0.11695E-07  1106   0.166E-03    0.160E-03
RMM:   5    -0.115722281989E+04   -0.15069E-06   -0.13018E-07  1018   0.169E-03    0.166E-03
RMM:   6    -0.115722282036E+04   -0.47816E-06   -0.58848E-07  1802   0.197E-03    0.135E-03
RMM:   7    -0.115722282069E+04   -0.32295E-06   -0.49212E-07  1528   0.184E-03    0.145E-03
RMM:   8    -0.115722282090E+04   -0.21160E-06   -0.30899E-07  1254   0.180E-03
   1 F= -.11572228E+04 E0= -.11572228E+04  d E =-.115722E+04  mag=    14.0000
       N       E                     dE             d eps       ncg     rms          rms(c)
DAV:   1    -0.115722285049E+04   -0.29803E-04   -0.45171E-01 12816   0.781E-01    0.250E-01
RMM:   2    -0.115722373855E+04   -0.88806E-03   -0.14693E-02 12316   0.159E-01    0.244E-01
RMM:   3    -0.115722365834E+04    0.80214E-04   -0.76423E-04 11601   0.512E-02    0.159E-01
RMM:   4    -0.115722352694E+04    0.13139E-03   -0.41142E-04 10499   0.229E-02    0.852E-02
RMM:   5    -0.115722348572E+04    0.41219E-04   -0.10218E-04  8184   0.155E-02    0.272E-02
RMM:   6    -0.115722348778E+04   -0.20563E-05   -0.23157E-05  7039   0.724E-03    0.174E-02
RMM:   7    -0.115722348866E+04   -0.87518E-06   -0.10238E-05  6380   0.490E-03    0.144E-02
RMM:   8    -0.115722348946E+04   -0.80728E-06   -0.62631E-06  6066   0.360E-03
   2 F= -.11572235E+04 E0= -.11572235E+04  d E =-.668565E-03  mag=    14.0000
       N       E                     dE             d eps       ncg     rms          rms(c)
DAV:   1    -0.115722447215E+04   -0.98349E-03   -0.10560E-01 12304   0.374E-01    0.122E-01
RMM:   2    -0.115722457101E+04   -0.98863E-04   -0.37644E-03 12141   0.797E-02    0.134E-01
RMM:   3    -0.115722452613E+04    0.44877E-04   -0.14438E-04  7877   0.238E-02    0.927E-02
RMM:   4    -0.115722447572E+04    0.50409E-04   -0.12489E-04  7326   0.137E-02    0.532E-02
RMM:   5    -0.115722446177E+04    0.13954E-04   -0.47315E-05  6994   0.973E-03    0.419E-02
RMM:   6    -0.115722446234E+04   -0.57483E-06   -0.14783E-05  6109   0.590E-03    0.151E-02
RMM:   7    -0.115722446254E+04   -0.19920E-06   -0.60734E-06  5331   0.377E-03    0.127E-02
RMM:   8    -0.115722446278E+04   -0.23983E-06   -0.31269E-06  4864   0.293E-03
   3 F= -.11572245E+04 E0= -.11572245E+04  d E =-.973320E-03  mag=    14.0000
       N       E                     dE             d eps       ncg     rms          rms(c)
DAV:   1    -0.115722473771E+04   -0.27517E-03   -0.63481E-02 12288   0.294E-01    0.625E-02
RMM:   2    -0.115722486863E+04   -0.13092E-03   -0.16525E-03 12404   0.528E-02    0.451E-02
RMM:   3    -0.115722486229E+04    0.63474E-05   -0.70040E-05  6873   0.181E-02    0.290E-02
RMM:   4    -0.115722485670E+04    0.55850E-05   -0.31372E-05  6757   0.747E-03    0.170E-02
RMM:   5    -0.115722485623E+04    0.46901E-06   -0.85697E-06  6027   0.486E-03    0.120E-02
RMM:   6    -0.115722485663E+04   -0.39382E-06   -0.43350E-06  5231   0.308E-03    0.536E-03
RMM:   7    -0.115722485682E+04   -0.19642E-06   -0.19329E-06  3898   0.279E-03    0.390E-03
RMM:   8    -0.115722485692E+04   -0.97061E-07   -0.85855E-07  2653   0.209E-03
   4 F= -.11572249E+04 E0= -.11572249E+04  d E =-.394137E-03  mag=    14.0000
