       N       E                     dE             d eps       ncg     rms          rms(c)
DAV:   1     0.121858590437E+05    0.12186E+05   -0.42961E+05  6160   0.133E+03
DAV:   2     0.722831216912E+03   -0.11463E+05   -0.10238E+05  6168   0.382E+02
DAV:   3    -0.135905298648E+04   -0.20819E+04   -0.20007E+04  6624   0.169E+02
DAV:   4    -0.150152234903E+04   -0.14247E+03   -0.14013E+03  8112   0.471E+01
DAV:   5    -0.151103854878E+04   -0.95162E+01   -0.94734E+01 11064   0.112E+01    0.183E+02
RMM:   6    -0.117400468383E+04    0.33703E+03   -0.17304E+03  6293   0.374E+01    0.146E+02
RMM:   7    -0.115266652244E+04    0.21338E+02   -0.79391E+01  6415   0.124E+01    0.975E+01
RMM:   8    -0.115405096368E+04   -0.13844E+01   -0.32378E+01  6481   0.654E+00    0.545E+01
RMM:   9    -0.115763232682E+04   -0.35814E+01   -0.14225E+01  6906   0.449E+00    0.270E+01
RMM:  10    -0.115897944538E+04   -0.13471E+01   -0.33165E+00  7463   0.190E+00    0.947E+00
RMM:  11    -0.116025967719E+04   -0.12802E+01   -0.13896E+00  7113   0.116E+00    0.752E+00
RMM:  12    -0.116095846549E+04   -0.69879E+00   -0.93755E-01  7177   0.998E-01    0.534E+00
RMM:  13    -0.116172258673E+04   -0.76412E+00   -0.69704E-01  6523   0.779E-01    0.217E+00
RMM:  14    -0.116187237139E+04   -0.14978E+00   -0.18635E-01  6989   0.463E-01    0.158E+00
RMM:  15    -0.116193242853E+04   -0.60057E-01   -0.10939E-01  7283   0.298E-01    0.719E-01
RMM:  16    -0.116194250151E+04   -0.10073E-01   -0.32501E-02  7579   0.164E-01    0.482E-01
RMM:  17    -0.116194546409E+04   -0.29626E-02   -0.10748E-02  7908   0.853E-02    0.254E-01
RMM:  18    -0.116194629589E+04   -0.83181E-03   -0.44409E-03  7325   0.527E-02    0.123E-01
RMM:  19    -0.116194647569E+04   -0.17979E-03   -0.14979E-03  5796   0.288E-02    0.749E-02
RMM:  20    -0.116194655007E+04   -0.74384E-04   -0.79944E-04  5004   0.186E-02
   1 F= -.11619466E+04 E0= -.11619466E+04  d E =-.116195E+04  mag=    14.0066
       N       E                     dE             d eps       ncg     rms          rms(c)
DAV:   1    -0.111040954879E+04    0.51537E+02   -0.24216E+03  6640   0.398E+01    0.425E+01
RMM:   2    -0.116087384214E+04   -0.50464E+02   -0.27123E+02  7331   0.146E+01    0.396E+01
RMM:   3    -0.116148959817E+04   -0.61576E+00   -0.17604E+01  6814   0.425E+00    0.225E+01
RMM:   4    -0.116102049438E+04    0.46910E+00   -0.29574E+00  7240   0.138E+00    0.129E+01
RMM:   5    -0.116098488738E+04    0.35607E-01   -0.34537E-01  8388   0.470E-01    0.936E+00
RMM:   6    -0.116096798632E+04    0.16901E-01   -0.20079E-01  6875   0.391E-01    0.418E+00
RMM:   7    -0.116094746211E+04    0.20524E-01   -0.11958E-01  7589   0.278E-01    0.898E-01
RMM:   8    -0.116095156995E+04   -0.41078E-02   -0.25999E-02  8763   0.115E-01    0.413E-01
RMM:   9    -0.116095232738E+04   -0.75743E-03   -0.71082E-03  8200   0.542E-02    0.256E-01
RMM:  10    -0.116095307331E+04   -0.74593E-03   -0.33086E-03  7563   0.403E-02    0.104E-01
RMM:  11    -0.116095333573E+04   -0.26242E-03   -0.14346E-03  6142   0.240E-02    0.768E-02
RMM:  12    -0.116095345966E+04   -0.12393E-03   -0.72710E-04  4955   0.175E-02    0.510E-02
RMM:  13    -0.116095351748E+04   -0.57822E-04   -0.36779E-04  4520   0.139E-02
   2 F= -.11609535E+04 E0= -.11609535E+04  d E =0.993033E+00  mag=    15.9692
       N       E                     dE             d eps       ncg     rms          rms(c)
DAV:   1    -0.114894917572E+04    0.12004E+02   -0.36526E+02  6864   0.168E+01    0.208E+01
RMM:   2    -0.116195962207E+04   -0.13010E+02   -0.24053E+01  6538   0.522E+00    0.232E+01
RMM:   3    -0.116227840897E+04   -0.31879E+00   -0.15891E+00  6334   0.191E+00    0.864E+00
RMM:   4    -0.116221842186E+04    0.59987E-01   -0.51563E-01  6874   0.716E-01    0.795E+00
RMM:   5    -0.116217822255E+04    0.40199E-01   -0.15234E-01  6367   0.402E-01    0.248E+00
RMM:   6    -0.116219543570E+04   -0.17213E-01   -0.50605E-02  6580   0.253E-01    0.913E-01
RMM:   7    -0.116219609319E+04   -0.65749E-03   -0.65783E-03  7354   0.768E-02    0.592E-01
RMM:   8    -0.116219570353E+04    0.38966E-03   -0.21922E-03  6518   0.417E-02    0.341E-01
RMM:   9    -0.116219574212E+04   -0.38592E-04   -0.61647E-04  5554   0.265E-02
   3 F= -.11621957E+04 E0= -.11621951E+04  d E =-.124222E+01  mag=    15.9981
       N       E                     dE             d eps       ncg     rms          rms(c)
DAV:   1    -0.116227397389E+04   -0.78270E-01   -0.73238E+01  6648   0.920E+00    0.467E+00
RMM:   2    -0.116247215243E+04   -0.19818E+00   -0.24158E+00  6152   0.195E+00    0.415E+00
RMM:   3    -0.116248070035E+04   -0.85479E-02   -0.13457E-01  6685   0.555E-01    0.269E+00
RMM:   4    -0.116246714959E+04    0.13551E-01   -0.35131E-02  6410   0.211E-01    0.162E+00
RMM:   5    -0.116246164515E+04    0.55044E-02   -0.39144E-02  6269   0.191E-01    0.664E-01
RMM:   6    -0.116246297837E+04   -0.13332E-02   -0.63701E-03  6000   0.964E-02    0.492E-01
RMM:   7    -0.116246386172E+04   -0.88335E-03   -0.22085E-03  5880   0.431E-02    0.520E-01
RMM:   8    -0.116246402722E+04   -0.16550E-03   -0.49690E-04  4643   0.250E-02    0.520E-01
RMM:   9    -0.116246401738E+04    0.98394E-05   -0.61351E-04  4645   0.226E-02
   4 F= -.11624640E+04 E0= -.11624578E+04  d E =-.268275E+00  mag=    15.9997
       N       E                     dE             d eps       ncg     rms          rms(c)
DAV:   1    -0.116248186472E+04   -0.17837E-01   -0.22837E+01  6704   0.448E+00    0.472E+00
RMM:   2    -0.116269569306E+04   -0.21383E+00   -0.86003E-01  6165   0.100E+00    0.433E+00
RMM:   3    -0.116269386772E+04    0.18253E-02   -0.19455E-01  6488   0.460E-01    0.258E+00
RMM:   4    -0.116268574129E+04    0.81264E-02   -0.90617E-02  6523   0.249E-01    0.261E+00
RMM:   5    -0.116272760326E+04   -0.41862E-01   -0.21135E-02  6359   0.147E-01    0.607E+00
RMM:   6    -0.116270463666E+04    0.22967E-01   -0.63264E-02  6105   0.252E-01    0.655E+00
RMM:   7    -0.116265003615E+04    0.54601E-01   -0.47161E-02  6758   0.200E-01    0.269E+00
RMM:   8    -0.116267906546E+04   -0.29029E-01   -0.14365E-02  6076   0.134E-01    0.339E+00
RMM:   9    -0.116267303663E+04    0.60288E-02   -0.32363E-03  5794   0.942E-02    0.319E+00
RMM:  10    -0.116266898938E+04    0.40473E-02   -0.42454E-03  5897   0.687E-02    0.258E+00
RMM:  11    -0.116266457128E+04    0.44181E-02   -0.11289E-02  6347   0.913E-02    0.131E+00
RMM:  12    -0.116266465757E+04   -0.86296E-04   -0.95073E-03  6269   0.966E-02    0.384E-01
RMM:  13    -0.116266658277E+04   -0.19252E-02   -0.12612E-03  5307   0.457E-02    0.416E-01
RMM:  14    -0.116266638771E+04    0.19506E-03   -0.42350E-04  4516   0.299E-02    0.440E-01
RMM:  15    -0.116266606050E+04    0.32720E-03   -0.20375E-04  3859   0.180E-02    0.587E-01
RMM:  16    -0.116266552906E+04    0.53144E-03   -0.16292E-04  3719   0.137E-02    0.719E-01
RMM:  17    -0.116266540830E+04    0.12076E-03   -0.35305E-05  3448   0.104E-02    0.720E-01
RMM:  18    -0.116266508367E+04    0.32463E-03   -0.58215E-05  3355   0.901E-03    0.753E-01
RMM:  19    -0.116266612258E+04   -0.10389E-02   -0.31640E-04  4002   0.183E-02    0.582E-01
RMM:  20    -0.116266708660E+04   -0.96402E-03   -0.64576E-04  4744   0.231E-02    0.436E-01
RMM:  21    -0.116266799094E+04   -0.90434E-03   -0.82553E-04  4824   0.264E-02    0.362E-01
RMM:  22    -0.116266867804E+04   -0.68710E-03   -0.69121E-04  4797   0.240E-02    0.399E-01
RMM:  23    -0.116266862707E+04    0.50973E-04   -0.55198E-05  3452   0.142E-02
   5 F= -.11626686E+04 E0= -.11626535E+04  d E =-.204610E+00  mag=    16.0213
       N       E                     dE             d eps       ncg     rms          rms(c)
DAV:   1    -0.116277017661E+04   -0.10150E+00   -0.17425E+01  6400   0.390E+00    0.338E+00
RMM:   2    -0.116292961404E+04   -0.15944E+00   -0.71490E-01  6354   0.832E-01    0.732E+00
RMM:   3    -0.116294679936E+04   -0.17185E-01   -0.76105E-02  6479   0.335E-01    0.712E+00
RMM:   4    -0.116293150541E+04    0.15294E-01   -0.91386E-03  7546   0.102E-01    0.718E+00
RMM:   5    -0.116294775755E+04   -0.16252E-01   -0.23404E-02  6248   0.122E-01    0.684E+00
RMM:   6    -0.116300488035E+04   -0.57123E-01   -0.56103E-02  6246   0.228E-01    0.432E+00
RMM:   7    -0.116305904464E+04   -0.54164E-01   -0.14971E-01  6634   0.341E-01    0.918E-01
RMM:   8    -0.116306247033E+04   -0.34257E-02   -0.27290E-02  6483   0.171E-01    0.485E-01
RMM:   9    -0.116306368181E+04   -0.12115E-02   -0.64314E-03  6893   0.666E-02    0.294E-01
RMM:  10    -0.116306450425E+04   -0.82244E-03   -0.19606E-03  6422   0.380E-02    0.164E-01
RMM:  11    -0.116306502526E+04   -0.52101E-03   -0.49886E-04  5276   0.231E-02    0.936E-02
RMM:  12    -0.116306538583E+04   -0.36057E-03   -0.33716E-04  4798   0.183E-02    0.751E-02
RMM:  13    -0.116306549351E+04   -0.10768E-03   -0.12947E-04  3815   0.139E-02    0.399E-02
RMM:  14    -0.116306554146E+04   -0.47951E-04   -0.92389E-05  3649   0.109E-02
   6 F= -.11630655E+04 E0= -.11630655E+04  d E =-.396914E+00  mag=    14.0192
       N       E                     dE             d eps       ncg     rms          rms(c)
DAV:   1    -0.116311184630E+04   -0.46353E-01   -0.17880E+01  6320   0.406E+00    0.277E+00
RMM:   2    -0.116321288982E+04   -0.10104E+00   -0.46948E-01  6182   0.764E-01    0.150E+00
RMM:   3    -0.116322528846E+04   -0.12399E-01   -0.24568E-02  6221   0.250E-01    0.761E-01
RMM:   4    -0.116322387232E+04    0.14161E-02   -0.92134E-03  6462   0.985E-02    0.515E-01
RMM:   5    -0.116322363905E+04    0.23327E-03   -0.16341E-03  5843   0.414E-02    0.244E-01
RMM:   6    -0.116322368820E+04   -0.49153E-04   -0.56199E-04  5162   0.239E-02    0.984E-02
RMM:   7    -0.116322368095E+04    0.72541E-05   -0.14503E-04  3885   0.142E-02    0.601E-02
RMM:   8    -0.116322368018E+04    0.76668E-06   -0.46612E-05  3616   0.946E-03
   7 F= -.11632237E+04 E0= -.11632237E+04  d E =-.158139E+00  mag=    14.0019
       N       E                     dE             d eps       ncg     rms          rms(c)
DAV:   1    -0.116311025768E+04    0.11342E+00   -0.39455E+01  6352   0.604E+00    0.422E+00
RMM:   2    -0.116336149235E+04   -0.25123E+00   -0.10640E+00  6196   0.115E+00    0.241E+00
RMM:   3    -0.116339155047E+04   -0.30058E-01   -0.61676E-02  6206   0.413E-01    0.145E+00
RMM:   4    -0.116338994859E+04    0.16019E-02   -0.12777E-02  7467   0.122E-01    0.855E-01
RMM:   5    -0.116338876558E+04    0.11830E-02   -0.73236E-03  6528   0.825E-02    0.450E-01
RMM:   6    -0.116338885745E+04   -0.91867E-04   -0.16287E-03  6122   0.447E-02    0.192E-01
RMM:   7    -0.116338888607E+04   -0.28627E-04   -0.54757E-04  5146   0.253E-02    0.111E-01
RMM:   8    -0.116338887866E+04    0.74090E-05   -0.13289E-04  3960   0.152E-02
   8 F= -.11633889E+04 E0= -.11633889E+04  d E =-.165198E+00  mag=    14.0002
       N       E                     dE             d eps       ncg     rms          rms(c)
DAV:   1    -0.116329896936E+04    0.89917E-01   -0.25375E+01  6336   0.528E+00    0.295E+00
RMM:   2    -0.116342205141E+04   -0.12308E+00   -0.73678E-01  6150   0.106E+00    0.183E+00
RMM:   3    -0.116343387882E+04   -0.11827E-01   -0.42664E-02  6786   0.310E-01    0.105E+00
RMM:   4    -0.116343149690E+04    0.23819E-02   -0.11544E-02  6938   0.124E-01    0.724E-01
RMM:   5    -0.116343102172E+04    0.47518E-03   -0.40024E-03  6937   0.646E-02    0.325E-01
RMM:   6    -0.116343112780E+04   -0.10608E-03   -0.54019E-04  5401   0.268E-02    0.172E-01
RMM:   7    -0.116343115731E+04   -0.29515E-04   -0.27492E-04  4392   0.210E-02    0.981E-02
RMM:   8    -0.116343116327E+04   -0.59556E-05   -0.13303E-04  3838   0.167E-02
   9 F= -.11634312E+04 E0= -.11634312E+04  d E =-.422846E-01  mag=    14.0000
       N       E                     dE             d eps       ncg     rms          rms(c)
DAV:   1    -0.116342429683E+04    0.68605E-02   -0.49345E+00  6560   0.239E+00    0.118E+00
RMM:   2    -0.116344584758E+04   -0.21551E-01   -0.14046E-01  6188   0.478E-01    0.761E-01
RMM:   3    -0.116344772308E+04   -0.18755E-02   -0.77772E-03  6598   0.140E-01    0.408E-01
RMM:   4    -0.116344723656E+04    0.48651E-03   -0.15949E-03  6289   0.487E-02    0.278E-01
RMM:   5    -0.116344705746E+04    0.17910E-03   -0.88132E-04  5566   0.302E-02    0.105E-01
RMM:   6    -0.116344707141E+04   -0.13948E-04   -0.10940E-04  3786   0.156E-02    0.663E-02
RMM:   7    -0.116344707615E+04   -0.47422E-05   -0.59755E-05  3630   0.102E-02    0.404E-02
RMM:   8    -0.116344707794E+04   -0.17853E-05   -0.29534E-05  3508   0.871E-03
  10 F= -.11634471E+04 E0= -.11634471E+04  d E =-.159147E-01  mag=    14.0000
       N       E                     dE             d eps       ncg     rms          rms(c)
DAV:   1    -0.116343742763E+04    0.96485E-02   -0.94887E+00  6392   0.348E+00    0.927E-01
RMM:   2    -0.116346188659E+04   -0.24459E-01   -0.23452E-01  6160   0.615E-01    0.621E-01
RMM:   3    -0.116346282442E+04   -0.93784E-03   -0.13240E-02  6505   0.200E-01    0.379E-01
RMM:   4    -0.116346233584E+04    0.48859E-03   -0.28093E-03  7968   0.588E-02    0.261E-01
RMM:   5    -0.116346207706E+04    0.25878E-03   -0.12846E-03  6604   0.316E-02    0.131E-01
RMM:   6    -0.116346209418E+04   -0.17126E-04   -0.21771E-04  4165   0.173E-02    0.501E-02
RMM:   7    -0.116346210273E+04   -0.85482E-05   -0.92310E-05  3688   0.122E-02    0.317E-02
RMM:   8    -0.116346210777E+04   -0.50381E-05   -0.62264E-05  3602   0.101E-02
  11 F= -.11634621E+04 E0= -.11634621E+04  d E =-.150298E-01  mag=    14.0000
       N       E                     dE             d eps       ncg     rms          rms(c)
DAV:   1    -0.116346058262E+04    0.15201E-02   -0.50839E+00  6336   0.256E+00    0.491E-01
RMM:   2    -0.116347174600E+04   -0.11163E-01   -0.12040E-01  6177   0.432E-01    0.317E-01
RMM:   3    -0.116347187849E+04   -0.13250E-03   -0.66779E-03  6299   0.147E-01    0.207E-01
RMM:   4    -0.116347163972E+04    0.23877E-03   -0.16602E-03  7318   0.424E-02    0.116E-01
RMM:   5    -0.116347160697E+04    0.32753E-04   -0.51310E-04  5526   0.216E-02    0.318E-02
RMM:   6    -0.116347161466E+04   -0.76951E-05   -0.10525E-04  3722   0.121E-02    0.228E-02
RMM:   7    -0.116347161913E+04   -0.44705E-05   -0.58582E-05  3576   0.919E-03    0.192E-02
RMM:   8    -0.116347162203E+04   -0.28956E-05   -0.38743E-05  3449   0.761E-03
  12 F= -.11634716E+04 E0= -.11634716E+04  d E =-.951426E-02  mag=    14.0000
       N       E                     dE             d eps       ncg     rms          rms(c)
DAV:   1    -0.116346890339E+04    0.27157E-02   -0.39239E+00  6416   0.224E+00    0.525E-01
RMM:   2    -0.116347854808E+04   -0.96447E-02   -0.93635E-02  6173   0.383E-01    0.326E-01
RMM:   3    -0.116347884018E+04   -0.29209E-03   -0.51869E-03  6299   0.128E-01    0.196E-01
RMM:   4    -0.116347868092E+04    0.15926E-03   -0.11332E-03  6707   0.363E-02    0.130E-01
RMM:   5    -0.116347860115E+04    0.79763E-04   -0.43981E-04  4978   0.209E-02    0.751E-02
RMM:   6    -0.116347861251E+04   -0.11360E-04   -0.10083E-04  3672   0.126E-02    0.208E-02
RMM:   7    -0.116347861609E+04   -0.35800E-05   -0.42913E-05  3502   0.894E-03    0.118E-02
RMM:   8    -0.116347861875E+04   -0.26589E-05   -0.35518E-05  3395   0.735E-03
  13 F= -.11634786E+04 E0= -.11634786E+04  d E =-.699672E-02  mag=    14.0000
       N       E                     dE             d eps       ncg     rms          rms(c)
DAV:   1    -0.116347451454E+04    0.41016E-02   -0.42433E+00  6344   0.235E+00    0.433E-01
RMM:   2    -0.116348394153E+04   -0.94270E-02   -0.99960E-02  6174   0.394E-01    0.268E-01
RMM:   3    -0.116348403361E+04   -0.92087E-04   -0.54269E-03  6238   0.134E-01    0.173E-01
RMM:   4    -0.116348385134E+04    0.18227E-03   -0.13260E-03  6974   0.377E-02    0.978E-02
RMM:   5    -0.116348382940E+04    0.21946E-04   -0.39140E-04  4903   0.199E-02    0.304E-02
RMM:   6    -0.116348383654E+04   -0.71461E-05   -0.78757E-05  3635   0.115E-02    0.163E-02
RMM:   7    -0.116348384108E+04   -0.45375E-05   -0.54228E-05  3487   0.875E-03    0.110E-02
RMM:   8    -0.116348384387E+04   -0.27908E-05   -0.37359E-05  3407   0.749E-03
  14 F= -.11634838E+04 E0= -.11634838E+04  d E =-.522512E-02  mag=    14.0000
       N       E                     dE             d eps       ncg     rms          rms(c)
DAV:   1    -0.116348084750E+04    0.29936E-02   -0.29265E+00  6416   0.196E+00    0.357E-01
RMM:   2    -0.116348735498E+04   -0.65075E-02   -0.69406E-02  6183   0.332E-01    0.222E-01
RMM:   3    -0.116348742668E+04   -0.71696E-04   -0.38722E-03  6346   0.109E-01    0.153E-01
RMM:   4    -0.116348731449E+04    0.11219E-03   -0.81939E-04  6111   0.306E-02    0.104E-01
RMM:   5    -0.116348727126E+04    0.43225E-04   -0.31553E-04  4463   0.189E-02    0.384E-02
RMM:   6    -0.116348728020E+04   -0.89404E-05   -0.64721E-05  3542   0.115E-02    0.140E-02
RMM:   7    -0.116348728320E+04   -0.29956E-05   -0.37112E-05  3424   0.812E-03    0.107E-02
RMM:   8    -0.116348728530E+04   -0.20984E-05   -0.26224E-05  3338   0.708E-03
  15 F= -.11634873E+04 E0= -.11634873E+04  d E =-.344143E-02  mag=    14.0000
       N       E                     dE             d eps       ncg     rms          rms(c)
DAV:   1    -0.116348711646E+04    0.16674E-03   -0.66910E-01  6544   0.940E-01    0.201E-01
RMM:   2    -0.116348874089E+04   -0.16244E-02   -0.16708E-02  6152   0.168E-01    0.124E-01
RMM:   3    -0.116348878016E+04   -0.39269E-04   -0.98020E-04  5673   0.523E-02    0.829E-02
RMM:   4    -0.116348873790E+04    0.42267E-04   -0.16813E-04  3732   0.157E-02    0.496E-02
RMM:   5    -0.116348872797E+04    0.99295E-05   -0.85941E-05  3528   0.116E-02    0.195E-02
RMM:   6    -0.116348873085E+04   -0.28847E-05   -0.26473E-05  3423   0.778E-03    0.171E-02
RMM:   7    -0.116348873233E+04   -0.14778E-05   -0.15293E-05  3282   0.508E-03    0.867E-03
RMM:   8    -0.116348873311E+04   -0.77684E-06   -0.88803E-06  2939   0.468E-03
  16 F= -.11634887E+04 E0= -.11634887E+04  d E =-.144781E-02  mag=    14.0000
