       N       E                     dE             d eps       ncg     rms          rms(c)
DAV:   1    -0.116399832170E+04   -0.11640E+04   -0.55944E-06  3888   0.721E-03    0.131E-02
RMM:   2    -0.116399832171E+04   -0.10084E-07   -0.60631E-06  2891   0.425E-03    0.249E-02
RMM:   3    -0.116399832169E+04    0.20285E-07   -0.19718E-06  2004   0.266E-03    0.395E-03
RMM:   4    -0.116399832175E+04   -0.60565E-07   -0.77573E-07  1497   0.210E-03    0.295E-03
RMM:   5    -0.116399832179E+04   -0.35448E-07   -0.44758E-07  1293   0.200E-03    0.130E-03
RMM:   6    -0.116399832179E+04   -0.29249E-08   -0.51446E-08   664   0.179E-03    0.113E-03
RMM:   7    -0.116399832180E+04   -0.85565E-08   -0.60939E-08   665   0.179E-03    0.534E-04
RMM:   8    -0.116399832180E+04   -0.12951E-08   -0.98083E-09   482   0.176E-03
   1 F= -.11639983E+04 E0= -.11639983E+04  d E =-.116400E+04  mag=     6.0000
       N       E                     dE             d eps       ncg     rms          rms(c)
DAV:   1    -0.116399841242E+04   -0.90625E-04   -0.90497E-02  6096   0.349E-01    0.112E-01
RMM:   2    -0.116399856543E+04   -0.15300E-03   -0.28582E-03  6086   0.711E-02    0.998E-02
RMM:   3    -0.116399854242E+04    0.23004E-04   -0.11192E-04  3675   0.231E-02    0.626E-02
RMM:   4    -0.116399851199E+04    0.30439E-04   -0.71793E-05  3551   0.116E-02    0.379E-02
RMM:   5    -0.116399850583E+04    0.61547E-05   -0.33510E-05  3402   0.881E-03    0.347E-02
RMM:   6    -0.116399850593E+04   -0.10246E-06   -0.13361E-05  3383   0.619E-03    0.980E-03
RMM:   7    -0.116399850630E+04   -0.36195E-06   -0.45771E-06  2610   0.353E-03    0.854E-03
RMM:   8    -0.116399850640E+04   -0.10915E-06   -0.24757E-06  2436   0.286E-03
   2 F= -.11639985E+04 E0= -.11639985E+04  d E =-.184603E-03  mag=     6.0000
       N       E                     dE             d eps       ncg     rms          rms(c)
DAV:   1    -0.116399871734E+04   -0.21105E-03   -0.17666E-02  6144   0.153E-01    0.522E-02
RMM:   2    -0.116399871756E+04   -0.21940E-06   -0.64457E-04  5590   0.331E-02    0.488E-02
RMM:   3    -0.116399870642E+04    0.11143E-04   -0.27793E-05  3197   0.106E-02    0.311E-02
RMM:   4    -0.116399869450E+04    0.11920E-04   -0.26357E-05  3188   0.666E-03    0.198E-02
RMM:   5    -0.116399869248E+04    0.20224E-05   -0.94208E-06  3117   0.522E-03    0.139E-02
RMM:   6    -0.116399869243E+04    0.46377E-07   -0.40217E-06  2301   0.321E-03    0.612E-03
RMM:   7    -0.116399869256E+04   -0.13161E-06   -0.14857E-06  1977   0.255E-03    0.478E-03
RMM:   8    -0.116399869256E+04    0.97498E-09   -0.30384E-07  1249   0.192E-03
   3 F= -.11639987E+04 E0= -.11639987E+04  d E =-.186158E-03  mag=     6.0000
