       N       E                     dE             d eps       ncg     rms          rms(c)
DAV:   1     0.119072501259E+05    0.11907E+05   -0.42075E+05  6176   0.131E+03
DAV:   2     0.655560652967E+03   -0.11252E+05   -0.10057E+05  6144   0.375E+02
DAV:   3    -0.136424776218E+04   -0.20198E+04   -0.19464E+04  6600   0.165E+02
DAV:   4    -0.149960950159E+04   -0.13536E+03   -0.13308E+03  8144   0.444E+01
DAV:   5    -0.150810920979E+04   -0.84997E+01   -0.84585E+01 11072   0.102E+01    0.180E+02
RMM:   6    -0.116672637574E+04    0.34138E+03   -0.15980E+03  6272   0.347E+01    0.107E+02
RMM:   7    -0.115279140595E+04    0.13935E+02   -0.62229E+01  6433   0.109E+01    0.675E+01
RMM:   8    -0.116875129437E+04   -0.15960E+02   -0.23361E+01  6906   0.543E+00    0.539E+01
RMM:   9    -0.119341774243E+04   -0.24666E+02   -0.15550E+02  7478   0.102E+01    0.797E+01
RMM:  10    -0.117571892974E+04    0.17699E+02   -0.18082E+01  6309   0.435E+00    0.400E+01
RMM:  11    -0.115644162733E+04    0.19277E+02   -0.14408E+01  6302   0.359E+00    0.270E+01
RMM:  12    -0.115618508188E+04    0.25655E+00   -0.15134E+00  8016   0.903E-01    0.253E+01
RMM:  13    -0.115694462580E+04   -0.75954E+00   -0.52270E-01  7098   0.767E-01    0.209E+01
RMM:  14    -0.115746358888E+04   -0.51896E+00   -0.14849E-01  7705   0.412E-01    0.194E+01
RMM:  15    -0.115746268778E+04    0.90110E-03   -0.21796E-01  6598   0.567E-01    0.213E+01
RMM:  16    -0.115812736347E+04   -0.66468E+00   -0.95658E-01  6381   0.111E+00    0.186E+01
RMM:  17    -0.115817581746E+04   -0.48454E-01   -0.13876E+00  6321   0.137E+00    0.114E+01
RMM:  18    -0.116017347228E+04   -0.19977E+01   -0.12513E+00  6483   0.154E+00    0.717E+00
RMM:  19    -0.116052364871E+04   -0.35018E+00   -0.65549E-01  6774   0.100E+00    0.779E+00
RMM:  20    -0.116095129119E+04   -0.42764E+00   -0.33341E-01  6824   0.698E-01    0.715E+00
RMM:  21    -0.116107720446E+04   -0.12591E+00   -0.46705E-01  6550   0.813E-01    0.540E+00
RMM:  22    -0.116105317822E+04    0.24026E-01   -0.20936E-01  6860   0.514E-01    0.622E+00
RMM:  23    -0.116097929756E+04    0.73881E-01   -0.73881E-02  7040   0.340E-01    0.723E+00
RMM:  24    -0.116093850851E+04    0.40789E-01   -0.19219E-02  7243   0.155E-01    0.749E+00
RMM:  25    -0.116097021060E+04   -0.31702E-01   -0.39561E-03  6459   0.714E-02    0.723E+00
RMM:  26    -0.116097556907E+04   -0.53585E-02   -0.83135E-04  5819   0.274E-02    0.719E+00
RMM:  27    -0.116100376165E+04   -0.28193E-01   -0.47678E-03  5747   0.850E-02    0.709E+00
RMM:  28    -0.116103202622E+04   -0.28265E-01   -0.22275E-02  6064   0.181E-01    0.706E+00
RMM:  29    -0.116101393163E+04    0.18095E-01   -0.28927E-02  6212   0.198E-01    0.708E+00
RMM:  30    -0.116084742145E+04    0.16651E+00   -0.12421E-01  6262   0.445E-01    0.800E+00
RMM:  31    -0.116058856414E+04    0.25886E+00   -0.19741E-01  6510   0.558E-01    0.947E+00
RMM:  32    -0.116059685016E+04   -0.82860E-02   -0.32275E-02  7398   0.170E-01    0.943E+00
RMM:  33    -0.116058734401E+04    0.95062E-02   -0.22246E-03  6930   0.381E-02    0.949E+00
RMM:  34    -0.116042319652E+04    0.16415E+00   -0.13047E-02  6166   0.163E-01    0.102E+01
RMM:  35    -0.116039140688E+04    0.31790E-01   -0.32884E-03  6261   0.650E-02    0.104E+01
RMM:  36    -0.116062852792E+04   -0.23712E+00   -0.12050E-02  6087   0.163E-01    0.932E+00
RMM:  37    -0.116100055135E+04   -0.37202E+00   -0.61414E-02  6235   0.361E-01    0.729E+00
RMM:  38    -0.116123378857E+04   -0.23324E+00   -0.74078E-02  6264   0.406E-01    0.556E+00
RMM:  39    -0.116140099184E+04   -0.16720E+00   -0.86268E-02  6361   0.417E-01    0.391E+00
RMM:  40    -0.116145341855E+04   -0.52427E-01   -0.34316E-02  6817   0.218E-01
   1 F= -.11614534E+04 E0= -.11614534E+04  d E =-.116145E+04  mag=     0.8050
       N       E                     dE             d eps       ncg     rms          rms(c)
DAV:   1    -0.116147898685E+04   -0.77995E-01   -0.73418E+00  7104   0.292E+00    0.325E+00
RMM:   2    -0.116154964589E+04   -0.70659E-01   -0.29319E-01  6224   0.698E-01    0.172E+00
RMM:   3    -0.116156806825E+04   -0.18422E-01   -0.33198E-02  6261   0.339E-01    0.109E+00
RMM:   4    -0.116157799331E+04   -0.99251E-02   -0.19282E-02  6806   0.185E-01    0.595E-01
RMM:   5    -0.116158273395E+04   -0.47406E-02   -0.80566E-03  6351   0.121E-01    0.286E-01
RMM:   6    -0.116158475914E+04   -0.20252E-02   -0.26821E-03  6086   0.647E-02    0.200E-01
RMM:   7    -0.116158686032E+04   -0.21012E-02   -0.19083E-03  5407   0.566E-02    0.125E-01
RMM:   8    -0.116158815496E+04   -0.12946E-02   -0.10537E-03  4883   0.390E-02    0.108E-01
RMM:   9    -0.116158901534E+04   -0.86038E-03   -0.54171E-04  4466   0.273E-02    0.103E-01
RMM:  10    -0.116159038944E+04   -0.13741E-02   -0.80313E-04  4670   0.346E-02    0.103E-01
RMM:  11    -0.116159059092E+04   -0.20148E-03   -0.16591E-04  3938   0.150E-02    0.103E-01
RMM:  12    -0.116159015856E+04    0.43237E-03   -0.62757E-05  3671   0.138E-02    0.103E-01
RMM:  13    -0.116158806502E+04    0.20935E-02   -0.12358E-03  4728   0.473E-02    0.115E-01
RMM:  14    -0.116158679013E+04    0.12749E-02   -0.90670E-04  4462   0.380E-02    0.116E-01
RMM:  15    -0.116158499557E+04    0.17946E-02   -0.15277E-03  4722   0.481E-02    0.126E-01
RMM:  16    -0.116158465863E+04    0.33694E-03   -0.39638E-04  4034   0.220E-02    0.118E-01
RMM:  17    -0.116158028483E+04    0.43738E-02   -0.73313E-03  5293   0.109E-01    0.154E-01
RMM:  18    -0.116157928133E+04    0.10035E-02   -0.30688E-03  5108   0.650E-02    0.142E-01
RMM:  19    -0.116157875595E+04    0.52539E-03   -0.13862E-03  4726   0.403E-02    0.140E-01
RMM:  20    -0.116157802989E+04    0.72606E-03   -0.12017E-03  4651   0.393E-02    0.139E-01
RMM:  21    -0.116157730408E+04    0.72581E-03   -0.15088E-03  4716   0.450E-02    0.140E-01
RMM:  22    -0.116157725606E+04    0.48027E-04   -0.54476E-04  4181   0.231E-02
   2 F= -.11615773E+04 E0= -.11615772E+04  d E =-.123838E+00  mag=    -0.0001
       N       E                     dE             d eps       ncg     rms          rms(c)
DAV:   1    -0.116158266758E+04   -0.53635E-02   -0.16305E+00  6752   0.141E+00    0.484E-01
RMM:   2    -0.116158605737E+04   -0.33898E-02   -0.52931E-02  6149   0.297E-01    0.397E-01
RMM:   3    -0.116158625931E+04   -0.20193E-03   -0.30717E-03  6455   0.101E-01    0.259E-01
RMM:   4    -0.116158636080E+04   -0.10149E-03   -0.17889E-03  5855   0.531E-02    0.133E-01
RMM:   5    -0.116158676002E+04   -0.39922E-03   -0.75105E-04  5210   0.388E-02    0.828E-02
RMM:   6    -0.116158694967E+04   -0.18965E-03   -0.15853E-04  3936   0.181E-02    0.702E-02
RMM:   7    -0.116158732758E+04   -0.37791E-03   -0.23703E-04  4024   0.196E-02    0.614E-02
RMM:   8    -0.116158791567E+04   -0.58809E-03   -0.58841E-04  4390   0.313E-02    0.561E-02
RMM:   9    -0.116158813646E+04   -0.22079E-03   -0.19978E-04  3790   0.163E-02    0.537E-02
RMM:  10    -0.116158865442E+04   -0.51796E-03   -0.52126E-04  4255   0.302E-02    0.496E-02
RMM:  11    -0.116158933148E+04   -0.67706E-03   -0.11739E-03  4761   0.449E-02    0.477E-02
RMM:  12    -0.116159006269E+04   -0.73121E-03   -0.17584E-03  4876   0.553E-02    0.453E-02
RMM:  13    -0.116159026561E+04   -0.20292E-03   -0.29981E-04  3995   0.205E-02    0.458E-02
RMM:  14    -0.116158989188E+04    0.37373E-03   -0.20107E-04  3779   0.248E-02    0.509E-02
RMM:  15    -0.116158987760E+04    0.14278E-04   -0.22046E-05  3023   0.636E-03
   3 F= -.11615899E+04 E0= -.11615899E+04  d E =-.126215E-01  mag=    -0.0000
       N       E                     dE             d eps       ncg     rms          rms(c)
DAV:   1    -0.116159000883E+04   -0.11696E-03   -0.72625E-01  6576   0.934E-01    0.357E-01
RMM:   2    -0.116159223108E+04   -0.22223E-02   -0.19335E-02  6170   0.178E-01    0.236E-01
RMM:   3    -0.116159262954E+04   -0.39846E-03   -0.12182E-03  6053   0.697E-02    0.138E-01
RMM:   4    -0.116159274431E+04   -0.11476E-03   -0.51319E-04  5169   0.294E-02    0.740E-02
RMM:   5    -0.116159293168E+04   -0.18737E-03   -0.19244E-04  3877   0.222E-02    0.467E-02
RMM:   6    -0.116159306127E+04   -0.12959E-03   -0.84199E-05  3604   0.120E-02    0.489E-02
RMM:   7    -0.116159314524E+04   -0.83965E-04   -0.37939E-05  3479   0.842E-03    0.471E-02
RMM:   8    -0.116159328370E+04   -0.13846E-03   -0.43010E-05  3444   0.865E-03    0.475E-02
RMM:   9    -0.116159348044E+04   -0.19674E-03   -0.68905E-05  3452   0.102E-02    0.472E-02
RMM:  10    -0.116159353392E+04   -0.53477E-04   -0.22953E-05  3106   0.525E-03
   4 F= -.11615935E+04 E0= -.11615935E+04  d E =-.365632E-02  mag=    -0.0000
       N       E                     dE             d eps       ncg     rms          rms(c)
DAV:   1    -0.116159381699E+04   -0.33655E-03   -0.43736E-01  6496   0.749E-01    0.227E-01
RMM:   2    -0.116159503949E+04   -0.12225E-02   -0.11302E-02  6176   0.138E-01    0.157E-01
RMM:   3    -0.116159523175E+04   -0.19226E-03   -0.66970E-04  5433   0.547E-02    0.995E-02
RMM:   4    -0.116159541971E+04   -0.18796E-03   -0.28122E-04  4155   0.238E-02    0.637E-02
RMM:   5    -0.116159565241E+04   -0.23269E-03   -0.15842E-04  3720   0.175E-02    0.503E-02
RMM:   6    -0.116159577601E+04   -0.12361E-03   -0.61896E-05  3499   0.111E-02    0.486E-02
RMM:   7    -0.116159591672E+04   -0.14070E-03   -0.50811E-05  3447   0.894E-03    0.496E-02
RMM:   8    -0.116159544728E+04    0.46944E-03   -0.20246E-04  3714   0.225E-02    0.523E-02
RMM:   9    -0.116159559657E+04   -0.14929E-03   -0.13769E-05  3131   0.649E-03    0.508E-02
RMM:  10    -0.116159611641E+04   -0.51984E-03   -0.24625E-04  3712   0.213E-02    0.540E-02
RMM:  11    -0.116159763445E+04   -0.15180E-02   -0.25070E-03  4965   0.621E-02    0.681E-02
RMM:  12    -0.116159809567E+04   -0.46123E-03   -0.51034E-04  3995   0.247E-02    0.691E-02
RMM:  13    -0.116159765135E+04    0.44432E-03   -0.11238E-04  3467   0.179E-02    0.680E-02
RMM:  14    -0.116159689945E+04    0.75190E-03   -0.45133E-04  3844   0.273E-02    0.642E-02
RMM:  15    -0.116159542801E+04    0.14714E-02   -0.21693E-03  4856   0.573E-02    0.675E-02
RMM:  16    -0.116159484110E+04    0.58691E-03   -0.11880E-03  4316   0.400E-02    0.628E-02
RMM:  17    -0.116159477815E+04    0.62957E-04   -0.25355E-04  3647   0.162E-02
   5 F= -.11615948E+04 E0= -.11615948E+04  d E =-.124423E-02  mag=    -0.0000
       N       E                     dE             d eps       ncg     rms          rms(c)
DAV:   1    -0.116159507838E+04   -0.23727E-03   -0.31968E-01  6432   0.641E-01    0.187E-01
RMM:   2    -0.116159600966E+04   -0.93128E-03   -0.79956E-03  6286   0.115E-01    0.120E-01
RMM:   3    -0.116159615454E+04   -0.14488E-03   -0.43811E-04  4697   0.452E-02    0.796E-02
RMM:   4    -0.116159632303E+04   -0.16848E-03   -0.18407E-04  3729   0.202E-02    0.528E-02
RMM:   5    -0.116159653126E+04   -0.20823E-03   -0.14202E-04  3617   0.145E-02    0.455E-02
RMM:   6    -0.116159662656E+04   -0.95300E-04   -0.44262E-05  3414   0.929E-03    0.440E-02
RMM:   7    -0.116159674256E+04   -0.11600E-03   -0.37520E-05  3332   0.811E-03    0.453E-02
RMM:   8    -0.116159629837E+04    0.44419E-03   -0.21095E-04  3674   0.223E-02    0.480E-02
RMM:   9    -0.116159631153E+04   -0.13156E-04   -0.22462E-05  3034   0.572E-03
   6 F= -.11615963E+04 E0= -.11615963E+04  d E =-.153338E-02  mag=    -0.0001
       N       E                     dE             d eps       ncg     rms          rms(c)
DAV:   1    -0.116159635213E+04   -0.53761E-04   -0.27553E-01  6400   0.605E-01    0.153E-01
RMM:   2    -0.116159713402E+04   -0.78188E-03   -0.70242E-03  6329   0.105E-01    0.990E-02
RMM:   3    -0.116159725497E+04   -0.12096E-03   -0.37038E-04  4381   0.417E-02    0.705E-02
RMM:   4    -0.116159743058E+04   -0.17561E-03   -0.14847E-04  3643   0.180E-02    0.510E-02
RMM:   5    -0.116159765221E+04   -0.22163E-03   -0.11876E-04  3600   0.138E-02    0.460E-02
RMM:   6    -0.116159775401E+04   -0.10179E-03   -0.43814E-05  3407   0.887E-03    0.451E-02
RMM:   7    -0.116159780955E+04   -0.55545E-04   -0.21949E-05  3300   0.648E-03    0.459E-02
RMM:   8    -0.116159722027E+04    0.58928E-03   -0.36856E-04  3894   0.274E-02    0.493E-02
RMM:   9    -0.116159691411E+04    0.30616E-03   -0.29674E-04  3641   0.193E-02    0.481E-02
RMM:  10    -0.116159651417E+04    0.39994E-03   -0.39519E-04  3833   0.221E-02    0.484E-02
RMM:  11    -0.116159604559E+04    0.46858E-03   -0.65219E-04  4057   0.287E-02    0.442E-02
RMM:  12    -0.116159494279E+04    0.11028E-02   -0.36849E-03  5099   0.739E-02    0.477E-02
RMM:  13    -0.116159504055E+04   -0.97754E-04   -0.72808E-04  4236   0.277E-02
   7 F= -.11615950E+04 E0= -.11615950E+04  d E =0.127098E-02  mag=    -0.0001
       N       E                     dE             d eps       ncg     rms          rms(c)
DAV:   1    -0.116159539899E+04   -0.45620E-03   -0.97679E-02  6336   0.364E-01    0.812E-02
RMM:   2    -0.116159567498E+04   -0.27599E-03   -0.25371E-03  6198   0.648E-02    0.566E-02
RMM:   3    -0.116159571023E+04   -0.35254E-04   -0.12605E-04  3564   0.265E-02    0.418E-02
RMM:   4    -0.116159577194E+04   -0.61708E-04   -0.65261E-05  3466   0.122E-02    0.297E-02
RMM:   5    -0.116159583437E+04   -0.62426E-04   -0.45110E-05  3354   0.849E-03    0.260E-02
RMM:   6    -0.116159586868E+04   -0.34313E-04   -0.18801E-05  3214   0.559E-03    0.242E-02
RMM:   7    -0.116159591405E+04   -0.45369E-04   -0.19652E-05  3072   0.621E-03    0.249E-02
RMM:   8    -0.116159597399E+04   -0.59939E-04   -0.28207E-05  3077   0.684E-03
   8 F= -.11615960E+04 E0= -.11615960E+04  d E =-.933441E-03  mag=    -0.0001
       N       E                     dE             d eps       ncg     rms          rms(c)
DAV:   1    -0.116159627093E+04   -0.35688E-03   -0.82805E-02  6280   0.337E-01    0.712E-02
RMM:   2    -0.116159649208E+04   -0.22116E-03   -0.21565E-03  6142   0.591E-02    0.506E-02
RMM:   3    -0.116159651929E+04   -0.27204E-04   -0.10099E-04  3513   0.236E-02    0.380E-02
RMM:   4    -0.116159658292E+04   -0.63635E-04   -0.63890E-05  3461   0.114E-02    0.279E-02
RMM:   5    -0.116159663437E+04   -0.51445E-04   -0.32653E-05  3325   0.701E-03    0.261E-02
RMM:   6    -0.116159666086E+04   -0.26488E-04   -0.11687E-05  3141   0.498E-03    0.244E-02
RMM:   7    -0.116159668974E+04   -0.28885E-04   -0.91083E-06  2741   0.430E-03    0.260E-02
RMM:   8    -0.116159663104E+04    0.58701E-04   -0.12088E-05  2877   0.627E-03
   9 F= -.11615966E+04 E0= -.11615966E+04  d E =-.657052E-03  mag=    -0.0001
       N       E                     dE             d eps       ncg     rms          rms(c)
DAV:   1    -0.116159669379E+04   -0.40460E-05   -0.21993E-01  6304   0.546E-01    0.111E-01
RMM:   2    -0.116159722247E+04   -0.52868E-03   -0.55935E-03  6277   0.936E-02    0.722E-02
RMM:   3    -0.116159725413E+04   -0.31666E-04   -0.27613E-04  3991   0.371E-02    0.502E-02
RMM:   4    -0.116159732407E+04   -0.69942E-04   -0.11624E-04  3587   0.154E-02    0.335E-02
RMM:   5    -0.116159737440E+04   -0.50321E-04   -0.45404E-05  3464   0.971E-03    0.275E-02
RMM:   6    -0.116159740894E+04   -0.34549E-04   -0.20771E-05  3348   0.710E-03    0.256E-02
RMM:   7    -0.116159743224E+04   -0.23296E-04   -0.12761E-05  3245   0.509E-03    0.264E-02
RMM:   8    -0.116159735165E+04    0.80593E-04   -0.24259E-05  3210   0.812E-03
  10 F= -.11615974E+04 E0= -.11615973E+04  d E =-.720607E-03  mag=    -0.0001
