       N       E                     dE             d eps       ncg     rms          rms(c)
DAV:   1    -0.116299838218E+04   -0.11630E+04   -0.19602E-04 10760   0.289E-02    0.406E-02
RMM:   2    -0.116299861573E+04   -0.23356E-03   -0.13366E-04  7101   0.155E-02    0.496E-02
RMM:   3    -0.116299867548E+04   -0.59750E-04   -0.35085E-05  5744   0.599E-03    0.421E-02
RMM:   4    -0.116299868471E+04   -0.92265E-05   -0.13314E-05  5099   0.421E-03    0.433E-02
RMM:   5    -0.116299868428E+04    0.42525E-06   -0.39603E-06  3698   0.272E-03    0.429E-02
RMM:   6    -0.116299868126E+04    0.30221E-05   -0.20687E-06  3178   0.253E-03    0.425E-02
RMM:   7    -0.116299841220E+04    0.26906E-03   -0.87991E-05  6384   0.117E-02    0.528E-02
RMM:   8    -0.116299805138E+04    0.36082E-03   -0.19672E-04  6429   0.139E-02    0.745E-02
RMM:   9    -0.116299665833E+04    0.13930E-02   -0.18083E-03  8873   0.434E-02    0.134E-01
RMM:  10    -0.116299643777E+04    0.22056E-03   -0.50858E-04  7620   0.207E-02    0.142E-01
RMM:  11    -0.116299644394E+04   -0.61750E-05   -0.49484E-05  6315   0.907E-03
   1 F= -.11629964E+04 E0= -.11629952E+04  d E =-.116300E+04  mag=     5.9816
       N       E                     dE             d eps       ncg     rms          rms(c)
DAV:   1    -0.116298915592E+04    0.72818E-02   -0.33375E+00 12768   0.195E+00    0.108E+00
RMM:   2    -0.116300520409E+04   -0.16048E-01   -0.90553E-02 12296   0.388E-01    0.730E-01
RMM:   3    -0.116300688687E+04   -0.16828E-02   -0.53542E-03 12300   0.130E-01    0.355E-01
RMM:   4    -0.116300689334E+04   -0.64732E-05   -0.35199E-03 12922   0.647E-02    0.182E-01
RMM:   5    -0.116300722949E+04   -0.33615E-03   -0.79584E-04 10588   0.357E-02    0.925E-02
RMM:   6    -0.116300746297E+04   -0.23348E-03   -0.17322E-04  8319   0.161E-02    0.743E-02
RMM:   7    -0.116300791106E+04   -0.44809E-03   -0.21890E-04  8067   0.154E-02    0.666E-02
RMM:   8    -0.116300833411E+04   -0.42305E-03   -0.21189E-04  7738   0.147E-02    0.609E-02
RMM:   9    -0.116300877102E+04   -0.43691E-03   -0.22954E-04  7689   0.147E-02    0.599E-02
RMM:  10    -0.116300937068E+04   -0.59966E-03   -0.39008E-04  7825   0.189E-02    0.549E-02
RMM:  11    -0.116301160587E+04   -0.22352E-02   -0.81265E-03 10713   0.985E-02    0.542E-02
RMM:  12    -0.116301263564E+04   -0.10298E-02   -0.22301E-03  9768   0.421E-02    0.473E-02
RMM:  13    -0.116301331727E+04   -0.68163E-03   -0.12934E-03  8997   0.340E-02    0.432E-02
RMM:  14    -0.116301352692E+04   -0.20966E-03   -0.30599E-04  8011   0.162E-02    0.407E-02
RMM:  15    -0.116301409725E+04   -0.57032E-03   -0.92720E-04  8537   0.304E-02    0.409E-02
RMM:  16    -0.116301501484E+04   -0.91759E-03   -0.60515E-03 10310   0.818E-02    0.478E-02
RMM:  17    -0.116301574671E+04   -0.73188E-03   -0.18469E-03  9402   0.377E-02    0.275E-02
RMM:  18    -0.116301598639E+04   -0.23968E-03   -0.33637E-03  9771   0.584E-02    0.432E-02
RMM:  19    -0.116301648758E+04   -0.50119E-03   -0.11377E-03  9078   0.298E-02    0.168E-02
RMM:  20    -0.116301662875E+04   -0.14117E-03   -0.12969E-03  8815   0.346E-02    0.165E-02
RMM:  21    -0.116301673678E+04   -0.10803E-03   -0.25085E-04  7739   0.153E-02    0.143E-02
RMM:  22    -0.116301677948E+04   -0.42706E-04   -0.22335E-04  6822   0.139E-02
   2 F= -.11630168E+04 E0= -.11630155E+04  d E =-.203355E-01  mag=     5.9798
       N       E                     dE             d eps       ncg     rms          rms(c)
DAV:   1    -0.116301997129E+04   -0.32345E-02   -0.95419E-01 12760   0.996E-01    0.605E-01
RMM:   2    -0.116302485939E+04   -0.48881E-02   -0.26015E-02 12296   0.207E-01    0.390E-01
RMM:   3    -0.116302539746E+04   -0.53808E-03   -0.15378E-03 11867   0.689E-02    0.181E-01
RMM:   4    -0.116302526592E+04    0.13154E-03   -0.77857E-04 10713   0.326E-02    0.980E-02
RMM:   5    -0.116302525832E+04    0.76025E-05   -0.18876E-04  8400   0.206E-02    0.425E-02
RMM:   6    -0.116302527544E+04   -0.17126E-04   -0.49749E-05  7275   0.981E-03    0.293E-02
RMM:   7    -0.116302529545E+04   -0.20009E-04   -0.24555E-05  6891   0.740E-03    0.291E-02
RMM:   8    -0.116302532496E+04   -0.29509E-04   -0.24257E-05  6839   0.618E-03
   3 F= -.11630253E+04 E0= -.11630241E+04  d E =-.854548E-02  mag=     5.9804
       N       E                     dE             d eps       ncg     rms          rms(c)
DAV:   1    -0.116301240912E+04    0.12886E-01   -0.23577E+00 12728   0.149E+00    0.106E+00
RMM:   2    -0.116302935885E+04   -0.16950E-01   -0.48229E-02 12415   0.278E-01    0.555E-01
RMM:   3    -0.116303217340E+04   -0.28146E-02   -0.32859E-03 12389   0.105E-01    0.211E-01
RMM:   4    -0.116303233916E+04   -0.16576E-03   -0.87957E-04 10920   0.369E-02    0.107E-01
RMM:   5    -0.116303245910E+04   -0.11994E-03   -0.20893E-04  7772   0.208E-02    0.585E-02
RMM:   6    -0.116303253344E+04   -0.74335E-04   -0.94579E-05  7303   0.117E-02    0.343E-02
RMM:   7    -0.116303261426E+04   -0.80826E-04   -0.55922E-05  7164   0.968E-03    0.309E-02
RMM:   8    -0.116303272577E+04   -0.11150E-03   -0.71613E-05  7043   0.967E-03    0.286E-02
RMM:   9    -0.116303284702E+04   -0.12125E-03   -0.89415E-05  7021   0.922E-03    0.253E-02
RMM:  10    -0.116303295699E+04   -0.10998E-03   -0.85936E-05  6714   0.845E-03    0.250E-02
RMM:  11    -0.116303322451E+04   -0.26752E-03   -0.51518E-04  7996   0.234E-02    0.202E-02
RMM:  12    -0.116303345396E+04   -0.22945E-03   -0.70414E-04  8181   0.260E-02    0.178E-02
RMM:  13    -0.116303359112E+04   -0.13715E-03   -0.35739E-04  7445   0.164E-02    0.167E-02
RMM:  14    -0.116303365436E+04   -0.63247E-04   -0.10991E-04  6552   0.948E-03
   4 F= -.11630337E+04 E0= -.11630324E+04  d E =-.832940E-02  mag=     5.9806
       N       E                     dE             d eps       ncg     rms          rms(c)
DAV:   1    -0.116302150001E+04    0.12091E-01   -0.24481E+00 12760   0.161E+00    0.961E-01
RMM:   2    -0.116303613000E+04   -0.14630E-01   -0.52889E-02 12642   0.294E-01    0.519E-01
RMM:   3    -0.116303832907E+04   -0.21991E-02   -0.33957E-03 12640   0.104E-01    0.203E-01
RMM:   4    -0.116303840009E+04   -0.71018E-04   -0.88409E-04 11187   0.377E-02    0.103E-01
RMM:   5    -0.116303850107E+04   -0.10098E-03   -0.26019E-04  8055   0.213E-02    0.555E-02
RMM:   6    -0.116303856405E+04   -0.62978E-04   -0.82218E-05  7302   0.127E-02    0.305E-02
RMM:   7    -0.116303863430E+04   -0.70249E-04   -0.60105E-05  7156   0.102E-02    0.291E-02
RMM:   8    -0.116303869590E+04   -0.61598E-04   -0.45075E-05  6979   0.785E-03
   5 F= -.11630387E+04 E0= -.11630375E+04  d E =-.504154E-02  mag=     5.9810
       N       E                     dE             d eps       ncg     rms          rms(c)
DAV:   1    -0.116303946748E+04   -0.83318E-03   -0.24679E-01 12712   0.578E-01    0.139E-01
RMM:   2    -0.116304008679E+04   -0.61931E-03   -0.66551E-03 12568   0.107E-01    0.104E-01
RMM:   3    -0.116304011237E+04   -0.25577E-04   -0.35529E-04  9034   0.365E-02    0.685E-02
RMM:   4    -0.116304015791E+04   -0.45541E-04   -0.15291E-04  7339   0.156E-02    0.415E-02
RMM:   5    -0.116304022143E+04   -0.63522E-04   -0.78250E-05  7124   0.101E-02    0.254E-02
RMM:   6    -0.116304025301E+04   -0.31579E-04   -0.26842E-05  6872   0.713E-03    0.230E-02
RMM:   7    -0.116304029222E+04   -0.39208E-04   -0.22698E-05  6530   0.579E-03    0.223E-02
RMM:   8    -0.116304035612E+04   -0.63902E-04   -0.35964E-05  6574   0.650E-03
   6 F= -.11630404E+04 E0= -.11630391E+04  d E =-.166022E-02  mag=     5.9809
       N       E                     dE             d eps       ncg     rms          rms(c)
DAV:   1    -0.116303875631E+04    0.15359E-02   -0.81323E-01 12736   0.101E+00    0.392E-01
RMM:   2    -0.116304197966E+04   -0.32233E-02   -0.19751E-02 12936   0.179E-01    0.219E-01
RMM:   3    -0.116304229716E+04   -0.31749E-03   -0.10474E-03 11793   0.584E-02    0.106E-01
RMM:   4    -0.116304233566E+04   -0.38503E-04   -0.23097E-04  7897   0.221E-02    0.547E-02
RMM:   5    -0.116304241937E+04   -0.83715E-04   -0.14620E-04  7359   0.147E-02    0.314E-02
RMM:   6    -0.116304245590E+04   -0.36525E-04   -0.43700E-05  7033   0.100E-02    0.256E-02
RMM:   7    -0.116304249323E+04   -0.37333E-04   -0.29479E-05  6850   0.677E-03    0.240E-02
RMM:   8    -0.116304256205E+04   -0.68815E-04   -0.39034E-05  6795   0.776E-03
   7 F= -.11630426E+04 E0= -.11630413E+04  d E =-.220592E-02  mag=     5.9811
       N       E                     dE             d eps       ncg     rms          rms(c)
DAV:   1    -0.116304194854E+04    0.54469E-03   -0.52499E-01 12664   0.822E-01    0.275E-01
RMM:   2    -0.116304375766E+04   -0.18091E-02   -0.12965E-02 12987   0.144E-01    0.158E-01
RMM:   3    -0.116304390090E+04   -0.14324E-03   -0.63521E-04 10414   0.457E-02    0.839E-02
RMM:   4    -0.116304394594E+04   -0.45032E-04   -0.16329E-04  7423   0.181E-02    0.444E-02
RMM:   5    -0.116304402843E+04   -0.82495E-04   -0.11787E-04  7257   0.125E-02    0.270E-02
RMM:   6    -0.116304406398E+04   -0.35554E-04   -0.36711E-05  6956   0.851E-03    0.249E-02
RMM:   7    -0.116304409882E+04   -0.34834E-04   -0.24937E-05  6766   0.639E-03    0.234E-02
RMM:   8    -0.116304417211E+04   -0.73292E-04   -0.42555E-05  6744   0.783E-03
   8 F= -.11630442E+04 E0= -.11630429E+04  d E =-.161006E-02  mag=     5.9811
