       N       E                     dE             d eps       ncg     rms          rms(c)
DAV:   1     0.118985932744E+05    0.11899E+05   -0.42101E+05 12352   0.131E+03
DAV:   2     0.652888868396E+03   -0.11246E+05   -0.10047E+05 12288   0.375E+02
DAV:   3    -0.136357490474E+04   -0.20165E+04   -0.19431E+04 13240   0.165E+02
DAV:   4    -0.149655549693E+04   -0.13298E+03   -0.13054E+03 16216   0.444E+01
DAV:   5    -0.150500520127E+04   -0.84497E+01   -0.84003E+01 22280   0.100E+01    0.182E+02
RMM:   6    -0.116466006154E+04    0.34035E+03   -0.15928E+03 12515   0.348E+01    0.110E+02
RMM:   7    -0.115034317158E+04    0.14317E+02   -0.62059E+01 12865   0.111E+01    0.642E+01
RMM:   8    -0.115431727115E+04   -0.39741E+01   -0.23525E+01 13183   0.557E+00    0.310E+01
RMM:   9    -0.115648333263E+04   -0.21661E+01   -0.74531E+00 13082   0.303E+00    0.106E+01
RMM:  10    -0.115825342880E+04   -0.17701E+01   -0.23349E+00 14522   0.136E+00    0.861E+00
RMM:  11    -0.115848443347E+04   -0.23100E+00   -0.83904E-01 14130   0.801E-01    0.520E+00
RMM:  12    -0.115933380887E+04   -0.84938E+00   -0.80535E-01 13161   0.827E-01    0.352E+00
RMM:  13    -0.115992089897E+04   -0.58709E+00   -0.50809E-01 13340   0.657E-01    0.193E+00
RMM:  14    -0.116009765257E+04   -0.17675E+00   -0.21916E-01 14135   0.442E-01    0.119E+00
RMM:  15    -0.116013180626E+04   -0.34154E-01   -0.76645E-02 14019   0.278E-01    0.115E+00
RMM:  16    -0.116014350430E+04   -0.11698E-01   -0.31549E-02 14595   0.173E-01    0.107E+00
RMM:  17    -0.116015493285E+04   -0.11429E-01   -0.28666E-02 13990   0.171E-01    0.109E+00
RMM:  18    -0.116016306904E+04   -0.81362E-02   -0.24677E-02 13265   0.167E-01    0.894E-01
RMM:  19    -0.116017121874E+04   -0.81497E-02   -0.61425E-02 12841   0.279E-01    0.750E-01
RMM:  20    -0.116017104446E+04    0.17428E-03   -0.85214E-03 12976   0.995E-02    0.361E-01
RMM:  21    -0.116017003286E+04    0.10116E-02   -0.26816E-03 12302   0.479E-02    0.398E-01
RMM:  22    -0.116017131662E+04   -0.12838E-02   -0.47023E-03 12210   0.785E-02    0.292E-01
RMM:  23    -0.116017179216E+04   -0.47554E-03   -0.41531E-03 12325   0.701E-02    0.131E-01
RMM:  24    -0.116017227693E+04   -0.48477E-03   -0.20341E-03 11825   0.483E-02    0.176E-01
RMM:  25    -0.116017247756E+04   -0.20063E-03   -0.19362E-03 11483   0.477E-02    0.860E-02
RMM:  26    -0.116017260837E+04   -0.13081E-03   -0.10414E-03 10769   0.335E-02    0.762E-02
RMM:  27    -0.116017267993E+04   -0.71568E-04   -0.94358E-04 10659   0.329E-02
   1 F= -.11601727E+04 E0= -.11601616E+04  d E =-.116017E+04  mag=     6.4485
       N       E                     dE             d eps       ncg     rms          rms(c)
DAV:   1    -0.112772179342E+04    0.32451E+02   -0.12788E+03 13672   0.291E+01    0.261E+01
RMM:   2    -0.115854092655E+04   -0.30819E+02   -0.10418E+02 12625   0.892E+00    0.241E+01
RMM:   3    -0.116027908608E+04   -0.17382E+01   -0.51821E+00 12712   0.289E+00    0.187E+01
RMM:   4    -0.115990694970E+04    0.37214E+00   -0.29748E+00 13451   0.172E+00    0.165E+01
RMM:   5    -0.115988708329E+04    0.19866E-01   -0.52464E-01 13836   0.700E-01    0.941E+00
RMM:   6    -0.116011759805E+04   -0.23051E+00   -0.34808E-01 13103   0.539E-01    0.939E+00
RMM:   7    -0.115996306857E+04    0.15453E+00   -0.76512E-01 12710   0.103E+00    0.628E+00
RMM:   8    -0.116005441000E+04   -0.91341E-01   -0.27838E-01 13599   0.551E-01    0.369E+00
RMM:   9    -0.116002656154E+04    0.27848E-01   -0.11272E-01 13221   0.362E-01    0.285E+00
RMM:  10    -0.116002642082E+04    0.14073E-03   -0.60652E-02 13851   0.229E-01    0.173E+00
RMM:  11    -0.116002984365E+04   -0.34228E-02   -0.23635E-02 13850   0.141E-01    0.897E-01
RMM:  12    -0.116003771147E+04   -0.78678E-02   -0.92006E-03 12949   0.106E-01    0.428E-01
RMM:  13    -0.116004377428E+04   -0.60628E-02   -0.63449E-03 11564   0.103E-01    0.229E-01
RMM:  14    -0.116004663015E+04   -0.28559E-02   -0.31015E-03 11193   0.617E-02    0.183E-01
RMM:  15    -0.116004808961E+04   -0.14595E-02   -0.12541E-03  9860   0.335E-02    0.179E-01
RMM:  16    -0.116004689808E+04    0.11915E-02   -0.26304E-04  8037   0.204E-02    0.184E-01
RMM:  17    -0.116004764999E+04   -0.75191E-03   -0.14263E-04  7582   0.152E-02    0.183E-01
RMM:  18    -0.116004934828E+04   -0.16983E-02   -0.48156E-04  8290   0.237E-02    0.184E-01
RMM:  19    -0.116005309297E+04   -0.37447E-02   -0.24005E-03  9950   0.531E-02    0.187E-01
RMM:  20    -0.116005166481E+04    0.14282E-02   -0.17750E-04  7502   0.181E-02    0.188E-01
RMM:  21    -0.116005788601E+04   -0.62212E-02   -0.50464E-03 10734   0.903E-02    0.185E-01
RMM:  22    -0.116007697884E+04   -0.19093E-01   -0.52507E-02 12194   0.286E-01    0.269E-01
RMM:  23    -0.116007845346E+04   -0.14746E-02   -0.68248E-03 11348   0.567E-02    0.239E-01
RMM:  24    -0.116007617602E+04    0.22774E-02   -0.10493E-03  8683   0.366E-02    0.239E-01
RMM:  25    -0.116007677909E+04   -0.60307E-03   -0.24196E-04  7451   0.107E-02    0.229E-01
RMM:  26    -0.116008132719E+04   -0.45481E-02   -0.23976E-03  9869   0.527E-02    0.237E-01
RMM:  27    -0.116007290550E+04    0.84217E-02   -0.40486E-03 10515   0.842E-02    0.283E-01
RMM:  28    -0.116007331776E+04   -0.41226E-03   -0.29759E-04  7471   0.140E-02    0.279E-01
RMM:  29    -0.116007074921E+04    0.25686E-02   -0.10735E-03  8643   0.339E-02    0.267E-01
RMM:  30    -0.116007478057E+04   -0.40314E-02   -0.18289E-03 10142   0.611E-02    0.292E-01
RMM:  31    -0.116008033815E+04   -0.55576E-02   -0.54099E-03 10836   0.877E-02    0.396E-01
RMM:  32    -0.116007796606E+04    0.23721E-02   -0.14069E-03  9822   0.510E-02    0.416E-01
RMM:  33    -0.116008690449E+04   -0.89384E-02   -0.75063E-03 10861   0.112E-01    0.452E-01
RMM:  34    -0.116009202895E+04   -0.51245E-02   -0.50634E-03 10365   0.693E-02    0.471E-01
RMM:  35    -0.116009890440E+04   -0.68755E-02   -0.73087E-03 10784   0.889E-02    0.484E-01
RMM:  36    -0.116010568018E+04   -0.67758E-02   -0.69937E-03 10665   0.850E-02    0.472E-01
RMM:  37    -0.116010535750E+04    0.32268E-03   -0.10209E-03  8792   0.203E-02    0.479E-01
RMM:  38    -0.116010548311E+04   -0.12562E-03   -0.11476E-04  7280   0.128E-02    0.483E-01
RMM:  39    -0.116010559519E+04   -0.11208E-03   -0.51963E-05  6653   0.613E-03    0.484E-01
RMM:  40    -0.116010319506E+04    0.24001E-02   -0.49213E-04  8004   0.281E-02
   2 F= -.11601032E+04 E0= -.11601031E+04  d E =0.694849E-01  mag=     5.9922
       N       E                     dE             d eps       ncg     rms          rms(c)
DAV:   1    -0.115603187540E+04    0.40737E+01   -0.23660E+02 12720   0.138E+01    0.122E+01
RMM:   2    -0.116105815768E+04   -0.50263E+01   -0.95511E+00 12758   0.362E+00    0.105E+01
RMM:   3    -0.116121047984E+04   -0.15232E+00   -0.61350E-01 12815   0.123E+00    0.464E+00
RMM:   4    -0.116119092704E+04    0.19553E-01   -0.22331E-01 13667   0.547E-01    0.345E+00
RMM:   5    -0.116119235013E+04   -0.14231E-02   -0.68685E-02 13255   0.234E-01    0.112E+00
RMM:   6    -0.116119755137E+04   -0.52012E-02   -0.14882E-02 13115   0.143E-01    0.595E-01
RMM:   7    -0.116119948960E+04   -0.19382E-02   -0.35576E-03 13887   0.531E-02    0.332E-01
RMM:   8    -0.116120350468E+04   -0.40151E-02   -0.33874E-03 11487   0.630E-02    0.200E-01
RMM:   9    -0.116120596272E+04   -0.24580E-02   -0.20159E-03 11004   0.451E-02    0.180E-01
RMM:  10    -0.116120877140E+04   -0.28087E-02   -0.20136E-03 10330   0.462E-02    0.167E-01
RMM:  11    -0.116121688971E+04   -0.81183E-02   -0.13545E-02 10989   0.127E-01    0.144E-01
RMM:  12    -0.116122143579E+04   -0.45461E-02   -0.83168E-03 10768   0.885E-02    0.141E-01
RMM:  13    -0.116122229646E+04   -0.86067E-03   -0.16143E-03  9641   0.296E-02    0.144E-01
RMM:  14    -0.116121976215E+04    0.25343E-02   -0.96952E-04  8982   0.388E-02    0.154E-01
RMM:  15    -0.116121756035E+04    0.22018E-02   -0.14434E-03  8763   0.356E-02    0.159E-01
RMM:  16    -0.116121957035E+04   -0.20100E-02   -0.41053E-04  7817   0.263E-02    0.153E-01
RMM:  17    -0.116122897337E+04   -0.94030E-02   -0.20611E-02 11088   0.153E-01    0.124E-01
RMM:  18    -0.116123823177E+04   -0.92584E-02   -0.31433E-02 11434   0.178E-01    0.113E-01
RMM:  19    -0.116124236981E+04   -0.41380E-02   -0.12407E-02 11050   0.911E-02    0.123E-01
RMM:  20    -0.116123408694E+04    0.82829E-02   -0.13370E-02 10824   0.130E-01    0.155E-01
RMM:  21    -0.116123174380E+04    0.23431E-02   -0.33879E-03  9530   0.548E-02    0.165E-01
RMM:  22    -0.116124266846E+04   -0.10925E-01   -0.28338E-02 11284   0.179E-01    0.116E-01
RMM:  23    -0.116125014275E+04   -0.74743E-02   -0.54031E-02 11647   0.229E-01    0.170E-01
RMM:  24    -0.116125318976E+04   -0.30470E-02   -0.10060E-02 11121   0.794E-02    0.162E-01
RMM:  25    -0.116125412477E+04   -0.93501E-03   -0.78251E-04  8971   0.264E-02    0.135E-01
RMM:  26    -0.116125377195E+04    0.35281E-03   -0.25757E-04  7719   0.221E-02    0.126E-01
RMM:  27    -0.116125359655E+04    0.17540E-03   -0.55245E-05  6487   0.818E-03    0.140E-01
RMM:  28    -0.116125487869E+04   -0.12821E-02   -0.11514E-03  8399   0.298E-02    0.132E-01
RMM:  29    -0.116125668723E+04   -0.18085E-02   -0.14527E-03  9130   0.432E-02    0.658E-02
RMM:  30    -0.116125874837E+04   -0.20611E-02   -0.52570E-03  9964   0.651E-02    0.607E-02
RMM:  31    -0.116125938049E+04   -0.63212E-03   -0.12873E-03  8826   0.285E-02    0.552E-02
RMM:  32    -0.116126099273E+04   -0.16122E-02   -0.46983E-03  9948   0.601E-02    0.566E-02
RMM:  33    -0.116126238239E+04   -0.13897E-02   -0.15610E-02 10810   0.118E-01    0.713E-02
RMM:  34    -0.116126211399E+04    0.26840E-03   -0.21651E-03  9746   0.572E-02    0.577E-02
RMM:  35    -0.116126310433E+04   -0.99034E-03   -0.30438E-03  9826   0.566E-02    0.413E-02
RMM:  36    -0.116126328682E+04   -0.18249E-03   -0.42342E-04  8067   0.153E-02    0.281E-02
RMM:  37    -0.116126347460E+04   -0.18778E-03   -0.54591E-04  7763   0.204E-02    0.287E-02
RMM:  38    -0.116126365237E+04   -0.17776E-03   -0.43220E-04  7361   0.174E-02    0.210E-02
RMM:  39    -0.116126367768E+04   -0.25308E-04   -0.14641E-04  6676   0.101E-02
   3 F= -.11612637E+04 E0= -.11612637E+04  d E =-.116048E+01  mag=     6.0000
       N       E                     dE             d eps       ncg     rms          rms(c)
DAV:   1    -0.116127721924E+04   -0.13567E-01   -0.37517E+01 12984   0.581E+00    0.362E+00
RMM:   2    -0.116146828487E+04   -0.19107E+00   -0.99459E-01 12350   0.117E+00    0.270E+00
RMM:   3    -0.116148815510E+04   -0.19870E-01   -0.62064E-02 12490   0.404E-01    0.143E+00
RMM:   4    -0.116148443436E+04    0.37207E-02   -0.23809E-02 13520   0.157E-01    0.644E-01
RMM:   5    -0.116148356158E+04    0.87278E-03   -0.50885E-03 12491   0.835E-02    0.177E-01
RMM:   6    -0.116148358899E+04   -0.27404E-04   -0.79975E-04 12182   0.280E-02    0.110E-01
RMM:   7    -0.116148363869E+04   -0.49704E-04   -0.23676E-04  8703   0.155E-02    0.620E-02
RMM:   8    -0.116148372578E+04   -0.87090E-04   -0.16008E-04  8117   0.137E-02
   4 F= -.11614837E+04 E0= -.11614837E+04  d E =-.220048E+00  mag=     5.9999
       N       E                     dE             d eps       ncg     rms          rms(c)
DAV:   1    -0.116134729654E+04    0.13634E+00   -0.40121E+01 12712   0.620E+00    0.360E+00
RMM:   2    -0.116157364433E+04   -0.22635E+00   -0.91100E-01 12462   0.116E+00    0.254E+00
RMM:   3    -0.116160334936E+04   -0.29705E-01   -0.57516E-02 12807   0.397E-01    0.109E+00
RMM:   4    -0.116160000931E+04    0.33401E-02   -0.17317E-02 14265   0.139E-01    0.520E-01
RMM:   5    -0.116159943264E+04    0.57667E-03   -0.58775E-03 13108   0.685E-02    0.186E-01
RMM:   6    -0.116159951083E+04   -0.78190E-04   -0.76241E-04 11246   0.323E-02    0.126E-01
RMM:   7    -0.116159961382E+04   -0.10299E-03   -0.28021E-04  8821   0.171E-02    0.686E-02
RMM:   8    -0.116159972526E+04   -0.11144E-03   -0.17731E-04  8201   0.143E-02    0.321E-02
RMM:   9    -0.116159976891E+04   -0.43650E-04   -0.78498E-05  7575   0.104E-02
   5 F= -.11615998E+04 E0= -.11615998E+04  d E =-.116043E+00  mag=     6.0000
       N       E                     dE             d eps       ncg     rms          rms(c)
DAV:   1    -0.116161147315E+04   -0.11748E-01   -0.14253E+01 12824   0.411E+00    0.122E+00
RMM:   2    -0.116164822960E+04   -0.36756E-01   -0.34358E-01 12757   0.739E-01    0.790E-01
RMM:   3    -0.116164989281E+04   -0.16632E-02   -0.21003E-02 13423   0.234E-01    0.446E-01
RMM:   4    -0.116164832563E+04    0.15672E-02   -0.63030E-03 14277   0.845E-02    0.207E-01
RMM:   5    -0.116164813724E+04    0.18839E-03   -0.15381E-03 12728   0.397E-02    0.757E-02
RMM:   6    -0.116164815012E+04   -0.12880E-04   -0.20446E-04  8707   0.165E-02    0.509E-02
RMM:   7    -0.116164817866E+04   -0.28548E-04   -0.10019E-04  7838   0.114E-02    0.298E-02
RMM:   8    -0.116164820523E+04   -0.26566E-04   -0.64959E-05  7411   0.107E-02
   6 F= -.11616482E+04 E0= -.11616482E+04  d E =-.484363E-01  mag=     6.0000
       N       E                     dE             d eps       ncg     rms          rms(c)
DAV:   1    -0.116165040972E+04   -0.22311E-02   -0.16716E+01 12744   0.446E+00    0.104E+00
RMM:   2    -0.116168757658E+04   -0.37167E-01   -0.40651E-01 12661   0.822E-01    0.792E-01
RMM:   3    -0.116168895625E+04   -0.13797E-02   -0.30260E-02 13661   0.257E-01    0.552E-01
RMM:   4    -0.116168779970E+04    0.11566E-02   -0.47683E-03 15826   0.757E-02    0.331E-01
RMM:   5    -0.116168745396E+04    0.34574E-03   -0.29696E-03 12790   0.484E-02    0.672E-02
RMM:   6    -0.116168745369E+04    0.27139E-06   -0.23912E-04  8749   0.227E-02    0.518E-02
RMM:   7    -0.116168746362E+04   -0.99329E-05   -0.12194E-04  7704   0.115E-02    0.342E-02
RMM:   8    -0.116168747223E+04   -0.86073E-05   -0.69790E-05  7380   0.105E-02
   7 F= -.11616875E+04 E0= -.11616875E+04  d E =-.392670E-01  mag=     6.0000
       N       E                     dE             d eps       ncg     rms          rms(c)
DAV:   1    -0.116169547036E+04   -0.80067E-02   -0.65898E+00 12880   0.288E+00    0.554E-01
RMM:   2    -0.116170984173E+04   -0.14371E-01   -0.16314E-01 12841   0.513E-01    0.411E-01
RMM:   3    -0.116170988575E+04   -0.44022E-04   -0.99595E-03 13622   0.159E-01    0.280E-01
RMM:   4    -0.116170947258E+04    0.41317E-03   -0.22855E-03 14388   0.525E-02    0.167E-01
RMM:   5    -0.116170936931E+04    0.10327E-03   -0.79629E-04 11995   0.276E-02    0.352E-02
RMM:   6    -0.116170937379E+04   -0.44825E-05   -0.99086E-05  7533   0.138E-02    0.267E-02
RMM:   7    -0.116170938042E+04   -0.66272E-05   -0.61463E-05  7310   0.875E-03    0.170E-02
RMM:   8    -0.116170938564E+04   -0.52139E-05   -0.38603E-05  7166   0.827E-03
   8 F= -.11617094E+04 E0= -.11617094E+04  d E =-.219134E-01  mag=     6.0000
       N       E                     dE             d eps       ncg     rms          rms(c)
DAV:   1    -0.116170569046E+04    0.36900E-02   -0.12190E+01 12784   0.397E+00    0.775E-01
RMM:   2    -0.116173319838E+04   -0.27508E-01   -0.29164E-01 12833   0.677E-01    0.507E-01
RMM:   3    -0.116173347310E+04   -0.27472E-03   -0.15683E-02 13457   0.214E-01    0.334E-01
RMM:   4    -0.116173283425E+04    0.63885E-03   -0.36144E-03 15787   0.669E-02    0.182E-01
RMM:   5    -0.116173275865E+04    0.75600E-04   -0.11765E-03 13399   0.311E-02    0.459E-02
RMM:   6    -0.116173276918E+04   -0.10532E-04   -0.14372E-04  8187   0.161E-02    0.273E-02
RMM:   7    -0.116173278179E+04   -0.12608E-04   -0.97229E-05  7725   0.109E-02    0.187E-02
RMM:   8    -0.116173278772E+04   -0.59331E-05   -0.55283E-05  7358   0.968E-03
   9 F= -.11617328E+04 E0= -.11617328E+04  d E =-.234021E-01  mag=     6.0000
       N       E                     dE             d eps       ncg     rms          rms(c)
DAV:   1    -0.116171890916E+04    0.13873E-01   -0.14993E+01 12752   0.440E+00    0.860E-01
RMM:   2    -0.116175340021E+04   -0.34491E-01   -0.35722E-01 12852   0.746E-01    0.551E-01
RMM:   3    -0.116175378857E+04   -0.38836E-03   -0.18483E-02 13493   0.236E-01    0.355E-01
RMM:   4    -0.116175303181E+04    0.75677E-03   -0.43702E-03 16106   0.740E-02    0.186E-01
RMM:   5    -0.116175299192E+04    0.39892E-04   -0.13660E-03 14084   0.329E-02    0.449E-02
RMM:   6    -0.116175300420E+04   -0.12282E-04   -0.18218E-04  8680   0.168E-02    0.274E-02
RMM:   7    -0.116175301847E+04   -0.14269E-04   -0.10911E-04  7893   0.112E-02    0.183E-02
RMM:   8    -0.116175302561E+04   -0.71404E-05   -0.67348E-05  7517   0.100E-02
  10 F= -.11617530E+04 E0= -.11617530E+04  d E =-.202379E-01  mag=     6.0000
       N       E                     dE             d eps       ncg     rms          rms(c)
DAV:   1    -0.116174728979E+04    0.57287E-02   -0.69837E+00 12856   0.301E+00    0.565E-01
RMM:   2    -0.116176318169E+04   -0.15892E-01   -0.16653E-01 12812   0.508E-01    0.361E-01
RMM:   3    -0.116176326228E+04   -0.80595E-04   -0.84884E-03 13322   0.163E-01    0.233E-01
RMM:   4    -0.116176291712E+04    0.34516E-03   -0.19934E-03 15020   0.507E-02    0.126E-01
RMM:   5    -0.116176288801E+04    0.29106E-04   -0.69347E-04 12233   0.251E-02    0.302E-02
RMM:   6    -0.116176289303E+04   -0.50214E-05   -0.80433E-05  7543   0.143E-02    0.190E-02
RMM:   7    -0.116176290284E+04   -0.98021E-05   -0.82746E-05  7511   0.972E-03    0.158E-02
RMM:   8    -0.116176290634E+04   -0.35044E-05   -0.38618E-05  7043   0.882E-03
  11 F= -.11617629E+04 E0= -.11617629E+04  d E =-.988073E-02  mag=     6.0000
       N       E                     dE             d eps       ncg     rms          rms(c)
DAV:   1    -0.116175765411E+04    0.52487E-02   -0.52648E+00 12752   0.263E+00    0.463E-01
RMM:   2    -0.116176928164E+04   -0.11628E-01   -0.12657E-01 12776   0.440E-01    0.295E-01
RMM:   3    -0.116176916838E+04    0.11326E-03   -0.61100E-03 13189   0.141E-01    0.195E-01
RMM:   4    -0.116176890669E+04    0.26169E-03   -0.15506E-03 14362   0.446E-02    0.997E-02
RMM:   5    -0.116176890273E+04    0.39588E-05   -0.42416E-04 10544   0.216E-02    0.232E-02
RMM:   6    -0.116176890762E+04   -0.48931E-05   -0.59702E-05  7335   0.132E-02    0.146E-02
RMM:   7    -0.116176891537E+04   -0.77502E-05   -0.72006E-05  7245   0.957E-03    0.866E-03
RMM:   8    -0.116176891926E+04   -0.38927E-05   -0.36736E-05  6913   0.820E-03
  12 F= -.11617689E+04 E0= -.11617689E+04  d E =-.601292E-02  mag=     6.0000
       N       E                     dE             d eps       ncg     rms          rms(c)
DAV:   1    -0.116176346009E+04    0.54553E-02   -0.41082E+00 12784   0.233E+00    0.402E-01
RMM:   2    -0.116177253481E+04   -0.90747E-02   -0.98433E-02 12682   0.387E-01    0.248E-01
RMM:   3    -0.116177245160E+04    0.83216E-04   -0.47548E-03 12934   0.128E-01    0.163E-01
RMM:   4    -0.116177224317E+04    0.20843E-03   -0.12981E-03 13702   0.409E-02    0.738E-02
RMM:   5    -0.116177225947E+04   -0.16299E-04   -0.27571E-04  8932   0.193E-02    0.206E-02
RMM:   6    -0.116177226550E+04   -0.60360E-05   -0.55127E-05  7243   0.122E-02    0.134E-02
RMM:   7    -0.116177227200E+04   -0.64991E-05   -0.56850E-05  7131   0.947E-03    0.119E-02
RMM:   8    -0.116177227587E+04   -0.38638E-05   -0.30416E-05  6820   0.761E-03
  13 F= -.11617723E+04 E0= -.11617723E+04  d E =-.335660E-02  mag=     6.0000
       N       E                     dE             d eps       ncg     rms          rms(c)
DAV:   1    -0.116176751820E+04    0.47538E-02   -0.29317E+00 12880   0.197E+00    0.334E-01
RMM:   2    -0.116177397893E+04   -0.64607E-02   -0.70359E-02 12693   0.327E-01    0.204E-01
RMM:   3    -0.116177390958E+04    0.69350E-04   -0.34403E-03 12907   0.109E-01    0.133E-01
RMM:   4    -0.116177376301E+04    0.14658E-03   -0.91398E-04 12882   0.349E-02    0.608E-02
RMM:   5    -0.116177377169E+04   -0.86805E-05   -0.18372E-04  7736   0.177E-02    0.182E-02
RMM:   6    -0.116177377862E+04   -0.69280E-05   -0.53645E-05  7189   0.113E-02    0.119E-02
RMM:   7    -0.116177378376E+04   -0.51392E-05   -0.40347E-05  7026   0.880E-03    0.997E-03
RMM:   8    -0.116177378744E+04   -0.36876E-05   -0.23549E-05  6696   0.703E-03
  14 F= -.11617738E+04 E0= -.11617738E+04  d E =-.151158E-02  mag=     6.0000
       N       E                     dE             d eps       ncg     rms          rms(c)
DAV:   1    -0.116177037196E+04    0.34118E-02   -0.18172E+00 12920   0.155E+00    0.262E-01
RMM:   2    -0.116177432992E+04   -0.39580E-02   -0.43365E-02 12696   0.256E-01    0.162E-01
RMM:   3    -0.116177427708E+04    0.52840E-04   -0.21238E-03 12676   0.854E-02    0.106E-01
RMM:   4    -0.116177418202E+04    0.95058E-04   -0.56855E-04 11432   0.278E-02    0.472E-02
RMM:   5    -0.116177418667E+04   -0.46469E-05   -0.10702E-04  7306   0.155E-02    0.145E-02
RMM:   6    -0.116177419289E+04   -0.62201E-05   -0.42397E-05  7110   0.969E-03    0.112E-02
RMM:   7    -0.116177419631E+04   -0.34150E-05   -0.26422E-05  6811   0.774E-03    0.914E-03
RMM:   8    -0.116177419981E+04   -0.35074E-05   -0.19122E-05  6619   0.617E-03
  15 F= -.11617742E+04 E0= -.11617742E+04  d E =-.412370E-03  mag=     6.0000
       N       E                     dE             d eps       ncg     rms          rms(c)
DAV:   1    -0.116177190548E+04    0.22908E-02   -0.99070E-01 12896   0.114E+00    0.191E-01
RMM:   2    -0.116177406895E+04   -0.21635E-02   -0.23888E-02 12753   0.190E-01    0.120E-01
RMM:   3    -0.116177403439E+04    0.34557E-04   -0.11610E-03 11762   0.623E-02    0.782E-02
RMM:   4    -0.116177398572E+04    0.48676E-04   -0.29086E-04  8457   0.210E-02    0.380E-02
RMM:   5    -0.116177398465E+04    0.10652E-05   -0.72399E-05  7184   0.132E-02    0.114E-02
RMM:   6    -0.116177398924E+04   -0.45907E-05   -0.29980E-05  6984   0.825E-03    0.892E-03
RMM:   7    -0.116177399179E+04   -0.25408E-05   -0.17375E-05  6562   0.624E-03    0.695E-03
RMM:   8    -0.116177399444E+04   -0.26551E-05   -0.12538E-05  6486   0.525E-03
  16 F= -.11617740E+04 E0= -.11617740E+04  d E =0.205374E-03  mag=     6.0000
       N       E                     dE             d eps       ncg     rms          rms(c)
DAV:   1    -0.116177280983E+04    0.11820E-02   -0.37911E-01 12928   0.705E-01    0.121E-01
RMM:   2    -0.116177363949E+04   -0.82966E-03   -0.92384E-03 12810   0.118E-01    0.762E-02
RMM:   3    -0.116177361755E+04    0.21935E-04   -0.39238E-04  8721   0.357E-02    0.492E-02
RMM:   4    -0.116177359867E+04    0.18889E-04   -0.10932E-04  7224   0.136E-02    0.240E-02
RMM:   5    -0.116177360109E+04   -0.24193E-05   -0.33301E-05  7021   0.866E-03    0.812E-03
RMM:   6    -0.116177360352E+04   -0.24389E-05   -0.14856E-05  6743   0.575E-03    0.651E-03
RMM:   7    -0.116177360500E+04   -0.14717E-05   -0.84753E-06  6112   0.442E-03    0.486E-03
RMM:   8    -0.116177360690E+04   -0.19027E-05   -0.66034E-06  5746   0.386E-03
  17 F= -.11617736E+04 E0= -.11617736E+04  d E =0.387542E-03  mag=     6.0000
       N       E                     dE             d eps       ncg     rms          rms(c)
DAV:   1    -0.116177276709E+04    0.83791E-03   -0.22699E-01 12656   0.544E-01    0.928E-02
RMM:   2    -0.116177326331E+04   -0.49622E-03   -0.54878E-03 12681   0.911E-02    0.579E-02
RMM:   3    -0.116177325221E+04    0.11100E-04   -0.23254E-04  7922   0.287E-02    0.374E-02
RMM:   4    -0.116177324279E+04    0.94212E-05   -0.69808E-05  7089   0.108E-02    0.180E-02
RMM:   5    -0.116177324452E+04   -0.17264E-05   -0.20318E-05  6863   0.670E-03    0.719E-03
RMM:   6    -0.116177324606E+04   -0.15489E-05   -0.93259E-06  6449   0.461E-03    0.530E-03
RMM:   7    -0.116177324705E+04   -0.98941E-06   -0.50552E-06  5194   0.353E-03    0.405E-03
RMM:   8    -0.116177324828E+04   -0.12252E-05   -0.40339E-06  4770   0.314E-03
  18 F= -.11617732E+04 E0= -.11617732E+04  d E =0.358620E-03  mag=     6.0000
       N       E                     dE             d eps       ncg     rms          rms(c)
DAV:   1    -0.116177290927E+04    0.33779E-03   -0.49656E-02 12664   0.254E-01    0.460E-02
RMM:   2    -0.116177301670E+04   -0.10743E-03   -0.11936E-03 12072   0.432E-02    0.286E-02
RMM:   3    -0.116177301580E+04    0.89592E-06   -0.55562E-05  6865   0.154E-02    0.183E-02
RMM:   4    -0.116177301501E+04    0.78812E-06   -0.20698E-05  6746   0.576E-03    0.105E-02
RMM:   5    -0.116177301579E+04   -0.77767E-06   -0.55535E-06  5313   0.348E-03    0.380E-03
RMM:   6    -0.116177301642E+04   -0.62828E-06   -0.26151E-06  4138   0.278E-03    0.288E-03
RMM:   7    -0.116177301683E+04   -0.41319E-06   -0.12427E-06  3016   0.231E-03    0.240E-03
RMM:   8    -0.116177301735E+04   -0.52206E-06   -0.99956E-07  2765   0.221E-03
  19 F= -.11617730E+04 E0= -.11617730E+04  d E =0.230927E-03  mag=     6.0000
       N       E                     dE             d eps       ncg     rms          rms(c)
DAV:   1    -0.116177187274E+04    0.11441E-02   -0.27948E-01 12768   0.602E-01    0.105E-01
RMM:   2    -0.116177247988E+04   -0.60713E-03   -0.66923E-03 12749   0.101E-01    0.648E-02
RMM:   3    -0.116177246953E+04    0.10345E-04   -0.29690E-04  8192   0.321E-02    0.418E-02
RMM:   4    -0.116177245612E+04    0.13416E-04   -0.79752E-05  7115   0.117E-02    0.199E-02
RMM:   5    -0.116177245866E+04   -0.25452E-05   -0.22239E-05  6844   0.713E-03    0.664E-03
RMM:   6    -0.116177246027E+04   -0.16040E-05   -0.97307E-06  6451   0.480E-03    0.488E-03
RMM:   7    -0.116177246121E+04   -0.94537E-06   -0.53515E-06  5307   0.361E-03    0.369E-03
RMM:   8    -0.116177246232E+04   -0.11045E-05   -0.37733E-06  4830   0.317E-03
  20 F= -.11617725E+04 E0= -.11617725E+04  d E =0.555035E-03  mag=     6.0000
       N       E                     dE             d eps       ncg     rms          rms(c)
DAV:   1    -0.116177126011E+04    0.12011E-02   -0.27195E-01 12736   0.591E-01    0.106E-01
RMM:   2    -0.116177185221E+04   -0.59210E-03   -0.64856E-03 12690   0.986E-02    0.654E-02
RMM:   3    -0.116177184287E+04    0.93407E-05   -0.28941E-04  8259   0.315E-02    0.416E-02
RMM:   4    -0.116177183022E+04    0.12648E-04   -0.78943E-05  7145   0.114E-02    0.203E-02
RMM:   5    -0.116177183315E+04   -0.29288E-05   -0.22352E-05  6864   0.703E-03    0.690E-03
RMM:   6    -0.116177183486E+04   -0.17128E-05   -0.10112E-05  6490   0.480E-03    0.545E-03
RMM:   7    -0.116177183588E+04   -0.10168E-05   -0.54913E-06  5347   0.366E-03    0.396E-03
RMM:   8    -0.116177183702E+04   -0.11384E-05   -0.39975E-06  4748   0.319E-03
  21 F= -.11617718E+04 E0= -.11617718E+04  d E =0.625298E-03  mag=     6.0000
       N       E                     dE             d eps       ncg     rms          rms(c)
DAV:   1    -0.116177072969E+04    0.11062E-02   -0.22646E-01 12704   0.537E-01    0.993E-02
RMM:   2    -0.116177121884E+04   -0.48915E-03   -0.54022E-03 12741   0.903E-02    0.624E-02
RMM:   3    -0.116177121085E+04    0.79956E-05   -0.24003E-04  7870   0.287E-02    0.397E-02
RMM:   4    -0.116177120041E+04    0.10435E-04   -0.68599E-05  7109   0.108E-02    0.197E-02
RMM:   5    -0.116177120302E+04   -0.26150E-05   -0.20276E-05  6830   0.665E-03    0.740E-03
RMM:   6    -0.116177120454E+04   -0.15121E-05   -0.88082E-06  6462   0.466E-03    0.599E-03
RMM:   7    -0.116177120550E+04   -0.96798E-06   -0.47165E-06  5085   0.344E-03    0.409E-03
RMM:   8    -0.116177120663E+04   -0.11272E-05   -0.35305E-06  4601   0.304E-03
  22 F= -.11617712E+04 E0= -.11617712E+04  d E =0.630388E-03  mag=     6.0000
       N       E                     dE             d eps       ncg     rms          rms(c)
DAV:   1    -0.116177010400E+04    0.11015E-02   -0.23915E-01 12696   0.554E-01    0.978E-02
RMM:   2    -0.116177062197E+04   -0.51797E-03   -0.57166E-03 12688   0.930E-02    0.604E-02
RMM:   3    -0.116177061295E+04    0.90164E-05   -0.25333E-04  8061   0.298E-02    0.386E-02
RMM:   4    -0.116177060188E+04    0.11075E-04   -0.72476E-05  7121   0.110E-02    0.185E-02
RMM:   5    -0.116177060454E+04   -0.26653E-05   -0.20226E-05  6828   0.679E-03    0.860E-03
RMM:   6    -0.116177060608E+04   -0.15329E-05   -0.91901E-06  6481   0.468E-03    0.625E-03
RMM:   7    -0.116177060712E+04   -0.10383E-05   -0.49484E-06  5193   0.351E-03    0.444E-03
RMM:   8    -0.116177060823E+04   -0.11095E-05   -0.36263E-06  4634   0.309E-03
  23 F= -.11617706E+04 E0= -.11617706E+04  d E =0.598407E-03  mag=     6.0000
       N       E                     dE             d eps       ncg     rms          rms(c)
DAV:   1    -0.116176969186E+04    0.91525E-03   -0.17333E-01 12504   0.472E-01    0.859E-02
RMM:   2    -0.116177006507E+04   -0.37321E-03   -0.41742E-03 12711   0.794E-02    0.532E-02
RMM:   3    -0.116177005626E+04    0.88089E-05   -0.17354E-04  7378   0.253E-02    0.334E-02
RMM:   4    -0.116177004897E+04    0.72899E-05   -0.55272E-05  7027   0.969E-03    0.169E-02
RMM:   5    -0.116177005082E+04   -0.18419E-05   -0.16296E-05  6764   0.589E-03    0.723E-03
RMM:   6    -0.116177005205E+04   -0.12292E-05   -0.71226E-06  6230   0.419E-03    0.543E-03
RMM:   7    -0.116177005289E+04   -0.84324E-06   -0.36676E-06  4592   0.310E-03    0.385E-03
RMM:   8    -0.116177005383E+04   -0.94448E-06   -0.27768E-06  4225   0.276E-03
  24 F= -.11617701E+04 E0= -.11617701E+04  d E =0.554392E-03  mag=     6.0000
       N       E                     dE             d eps       ncg     rms          rms(c)
DAV:   1    -0.116176918577E+04    0.86712E-03   -0.16753E-01 12512   0.465E-01    0.830E-02
RMM:   2    -0.116176954912E+04   -0.36335E-03   -0.40292E-03 12672   0.784E-02    0.512E-02
RMM:   3    -0.116176954223E+04    0.68871E-05   -0.17109E-04  7427   0.255E-02    0.324E-02
RMM:   4    -0.116176953566E+04    0.65744E-05   -0.54713E-05  7005   0.957E-03    0.161E-02
RMM:   5    -0.116176953753E+04   -0.18727E-05   -0.15262E-05  6744   0.571E-03    0.628E-03
RMM:   6    -0.116176953872E+04   -0.11885E-05   -0.66193E-06  6014   0.406E-03    0.489E-03
RMM:   7    -0.116176953943E+04   -0.71491E-06   -0.34824E-06  4498   0.300E-03    0.379E-03
RMM:   8    -0.116176954029E+04   -0.85462E-06   -0.24186E-06  4110   0.273E-03
  25 F= -.11617695E+04 E0= -.11617695E+04  d E =0.513546E-03  mag=     6.0000
       N       E                     dE             d eps       ncg     rms          rms(c)
DAV:   1    -0.116176783745E+04    0.17020E-02   -0.44266E-01 12832   0.759E-01    0.131E-01
RMM:   2    -0.116176879730E+04   -0.95985E-03   -0.10531E-02 12688   0.126E-01    0.793E-02
RMM:   3    -0.116176878305E+04    0.14248E-04   -0.47843E-04  9167   0.409E-02    0.505E-02
RMM:   4    -0.116176876126E+04    0.21795E-04   -0.12006E-04  7243   0.144E-02    0.231E-02
RMM:   5    -0.116176876538E+04   -0.41234E-05   -0.33282E-05  6980   0.894E-03    0.840E-03
RMM:   6    -0.116176876769E+04   -0.23097E-05   -0.15094E-05  6711   0.580E-03    0.695E-03
RMM:   7    -0.116176876904E+04   -0.13467E-05   -0.85576E-06  6116   0.448E-03    0.493E-03
RMM:   8    -0.116176877038E+04   -0.13428E-05   -0.59584E-06  5431   0.372E-03
  26 F= -.11617688E+04 E0= -.11617688E+04  d E =0.769909E-03  mag=     6.0000
       N       E                     dE             d eps       ncg     rms          rms(c)
DAV:   1    -0.116176743977E+04    0.13293E-02   -0.29261E-01 12680   0.617E-01    0.111E-01
RMM:   2    -0.116176807561E+04   -0.63583E-03   -0.70335E-03 12626   0.103E-01    0.673E-02
RMM:   3    -0.116176806412E+04    0.11485E-04   -0.31065E-04  8331   0.330E-02    0.426E-02
RMM:   4    -0.116176804955E+04    0.14569E-04   -0.87236E-05  7167   0.120E-02    0.204E-02
RMM:   5    -0.116176805269E+04   -0.31410E-05   -0.25415E-05  6924   0.761E-03    0.944E-03
RMM:   6    -0.116176805454E+04   -0.18429E-05   -0.11651E-05  6632   0.519E-03    0.683E-03
RMM:   7    -0.116176805573E+04   -0.11975E-05   -0.65373E-06  5666   0.395E-03    0.502E-03
RMM:   8    -0.116176805687E+04   -0.11342E-05   -0.43916E-06  4846   0.341E-03
  27 F= -.11617681E+04 E0= -.11617681E+04  d E =0.713512E-03  mag=     6.0000
