       N       E                     dE             d eps       ncg     rms          rms(c)
DAV:   1    -0.116029493632E+04   -0.11603E+04   -0.57145E-05  3864   0.205E-02    0.613E-02
RMM:   2    -0.116029494693E+04   -0.10613E-04   -0.19600E-04  3364   0.141E-02    0.156E-01
RMM:   3    -0.116029494929E+04   -0.23550E-05   -0.33558E-05  2509   0.788E-03    0.440E-02
RMM:   4    -0.116029497082E+04   -0.21528E-04   -0.84659E-06  1986   0.322E-03    0.318E-02
RMM:   5    -0.116029491888E+04    0.51936E-04   -0.83637E-06  2307   0.485E-03    0.280E-02
RMM:   6    -0.116029490898E+04    0.99025E-05   -0.88298E-06  2113   0.358E-03    0.585E-03
RMM:   7    -0.116029490987E+04   -0.89628E-06   -0.98859E-07  1294   0.199E-03    0.420E-03
RMM:   8    -0.116029491035E+04   -0.47496E-06   -0.28992E-07   967   0.183E-03
   1 F= -.11602949E+04 E0= -.11602906E+04  d E =-.116029E+04  mag=     8.0233
       N       E                     dE             d eps       ncg     rms          rms(c)
DAV:   1    -0.116029528278E+04   -0.37291E-03   -0.53489E-01  6304   0.841E-01    0.241E-01
RMM:   2    -0.116029630585E+04   -0.10231E-02   -0.17580E-02  6130   0.171E-01    0.242E-01
RMM:   3    -0.116029618335E+04    0.12250E-03   -0.89598E-04  5893   0.533E-02    0.164E-01
RMM:   4    -0.116029605711E+04    0.12624E-03   -0.38499E-04  5223   0.227E-02    0.104E-01
RMM:   5    -0.116029603178E+04    0.25338E-04   -0.11997E-04  4099   0.167E-02    0.339E-02
RMM:   6    -0.116029605307E+04   -0.21294E-04   -0.38628E-05  3540   0.855E-03    0.380E-02
RMM:   7    -0.116029606547E+04   -0.12401E-04   -0.13556E-05  3273   0.596E-03    0.275E-02
RMM:   8    -0.116029608607E+04   -0.20603E-04   -0.75012E-06  3058   0.387E-03
   2 F= -.11602961E+04 E0= -.11602918E+04  d E =-.117572E-02  mag=     8.0237
       N       E                     dE             d eps       ncg     rms          rms(c)
DAV:   1    -0.116029695965E+04   -0.89417E-03   -0.11160E-01  6112   0.381E-01    0.125E-01
RMM:   2    -0.116029715517E+04   -0.19553E-03   -0.38913E-03  6075   0.792E-02    0.142E-01
RMM:   3    -0.116029714619E+04    0.89823E-05   -0.15140E-04  4022   0.240E-02    0.112E-01
RMM:   4    -0.116029730416E+04   -0.15797E-03   -0.11710E-04  3803   0.142E-02    0.903E-02
RMM:   5    -0.116029773746E+04   -0.43331E-03   -0.10822E-04  3639   0.120E-02    0.119E-01
RMM:   6    -0.116029749313E+04    0.24433E-03   -0.52824E-05  3387   0.118E-02    0.101E-01
RMM:   7    -0.116029725476E+04    0.23838E-03   -0.35884E-05  3274   0.809E-03    0.924E-02
RMM:   8    -0.116029711852E+04    0.13623E-03   -0.94744E-05  3568   0.118E-02    0.738E-02
RMM:   9    -0.116029713786E+04   -0.19342E-04   -0.14900E-05  2977   0.636E-03
   3 F= -.11602971E+04 E0= -.11602927E+04  d E =-.105179E-02  mag=     8.0242
       N       E                     dE             d eps       ncg     rms          rms(c)
DAV:   1    -0.116029744234E+04   -0.32381E-03   -0.78744E-02  6160   0.326E-01    0.106E-01
RMM:   2    -0.116029770015E+04   -0.25781E-03   -0.23255E-03  6073   0.610E-02    0.140E-01
RMM:   3    -0.116029773215E+04   -0.31999E-04   -0.10106E-04  3522   0.216E-02    0.825E-02
RMM:   4    -0.116029782650E+04   -0.94349E-04   -0.41356E-05  3374   0.890E-03    0.943E-02
RMM:   5    -0.116029793881E+04   -0.11231E-03   -0.31519E-05  3161   0.647E-03    0.989E-02
RMM:   6    -0.116029787311E+04    0.65697E-04   -0.11604E-05  2807   0.572E-03    0.885E-02
RMM:   7    -0.116029773055E+04    0.14256E-03   -0.69902E-05  3304   0.106E-02    0.911E-02
RMM:   8    -0.116029774938E+04   -0.18837E-04   -0.16725E-05  2646   0.490E-03
   4 F= -.11602977E+04 E0= -.11602932E+04  d E =-.611520E-03  mag=     8.0243
       N       E                     dE             d eps       ncg     rms          rms(c)
DAV:   1    -0.116029791885E+04   -0.18830E-03   -0.54747E-02  6112   0.271E-01    0.113E-01
RMM:   2    -0.116029820212E+04   -0.28328E-03   -0.14676E-03  6049   0.490E-02    0.111E-01
RMM:   3    -0.116029833607E+04   -0.13395E-03   -0.78708E-05  3488   0.183E-02    0.964E-02
RMM:   4    -0.116029860864E+04   -0.27256E-03   -0.10059E-04  3530   0.121E-02    0.145E-01
RMM:   5    -0.116029807806E+04    0.53058E-03   -0.32251E-04  4104   0.244E-02    0.963E-02
RMM:   6    -0.116029812485E+04   -0.46795E-04   -0.53483E-05  3205   0.934E-03    0.129E-01
RMM:   7    -0.116029804475E+04    0.80103E-04   -0.38448E-05  3236   0.985E-03    0.115E-01
RMM:   8    -0.116029813987E+04   -0.95123E-04   -0.13831E-05  2751   0.614E-03
   5 F= -.11602981E+04 E0= -.11602935E+04  d E =-.390490E-03  mag=     8.0240
       N       E                     dE             d eps       ncg     rms          rms(c)
DAV:   1    -0.116029818658E+04   -0.14183E-03   -0.70786E-02  6168   0.306E-01    0.136E-01
RMM:   2    -0.116029846144E+04   -0.27486E-03   -0.18267E-03  6048   0.536E-02    0.132E-01
RMM:   3    -0.116029855121E+04   -0.89770E-04   -0.87788E-05  3495   0.198E-02    0.945E-02
RMM:   4    -0.116029872648E+04   -0.17527E-03   -0.10425E-04  3513   0.126E-02    0.148E-01
RMM:   5    -0.116029881497E+04   -0.88482E-04   -0.28473E-05  3062   0.580E-03    0.135E-01
RMM:   6    -0.116029876616E+04    0.48807E-04   -0.80640E-06  2724   0.426E-03    0.127E-01
RMM:   7    -0.116029861513E+04    0.15103E-03   -0.10262E-04  3431   0.136E-02    0.849E-02
RMM:   8    -0.116029872503E+04   -0.10990E-03   -0.25844E-05  2872   0.667E-03    0.988E-02
RMM:   9    -0.116029842162E+04    0.30341E-03   -0.19355E-04  3772   0.170E-02    0.789E-02
RMM:  10    -0.116029811476E+04    0.30685E-03   -0.32751E-04  4306   0.185E-02    0.778E-02
RMM:  11    -0.116029803544E+04    0.79322E-04   -0.66059E-05  3380   0.948E-03
   6 F= -.11602980E+04 E0= -.11602939E+04  d E =0.104435E-03  mag=     8.0224
       N       E                     dE             d eps       ncg     rms          rms(c)
DAV:   1    -0.116029813896E+04   -0.24196E-04   -0.15522E-02  6472   0.146E-01    0.680E-02
RMM:   2    -0.116029818781E+04   -0.48856E-04   -0.63016E-04  5371   0.312E-02    0.142E-01
RMM:   3    -0.116029817815E+04    0.96640E-05   -0.60565E-05  3246   0.129E-02    0.424E-02
RMM:   4    -0.116029818189E+04   -0.37396E-05   -0.25632E-05  2999   0.544E-03    0.263E-02
RMM:   5    -0.116029821305E+04   -0.31155E-04   -0.84075E-06  2632   0.423E-03    0.285E-02
RMM:   6    -0.116029821844E+04   -0.53980E-05   -0.22090E-06  1754   0.247E-03    0.291E-02
RMM:   7    -0.116029819829E+04    0.20157E-04   -0.17406E-06  1729   0.261E-03    0.266E-02
RMM:   8    -0.116029817395E+04    0.24338E-04   -0.61544E-06  2632   0.377E-03
   7 F= -.11602982E+04 E0= -.11602940E+04  d E =-.138508E-03  mag=     8.0225
       N       E                     dE             d eps       ncg     rms          rms(c)
DAV:   1    -0.116029830318E+04   -0.10489E-03   -0.12210E-02  6160   0.127E-01    0.301E-02
RMM:   2    -0.116029833090E+04   -0.27727E-04   -0.27826E-04  3870   0.219E-02    0.229E-02
RMM:   3    -0.116029833472E+04   -0.38143E-05   -0.23238E-05  3154   0.938E-03    0.152E-02
RMM:   4    -0.116029833781E+04   -0.30907E-05   -0.70694E-06  2816   0.398E-03    0.126E-02
RMM:   5    -0.116029834373E+04   -0.59212E-05   -0.27971E-06  1804   0.276E-03    0.110E-02
RMM:   6    -0.116029834777E+04   -0.40382E-05   -0.11716E-06  1451   0.221E-03    0.121E-02
RMM:   7    -0.116029834082E+04    0.69465E-05   -0.11162E-06  1495   0.247E-03    0.101E-02
RMM:   8    -0.116029833996E+04    0.86181E-06   -0.96099E-07  1303   0.219E-03
   8 F= -.11602983E+04 E0= -.11602942E+04  d E =-.166011E-03  mag=     8.0227
       N       E                     dE             d eps       ncg     rms          rms(c)
DAV:   1    -0.116029854407E+04   -0.20325E-03   -0.58505E-02  6080   0.278E-01    0.539E-02
RMM:   2    -0.116029868226E+04   -0.13819E-03   -0.14187E-03  6012   0.463E-02    0.332E-02
RMM:   3    -0.116029868514E+04   -0.28738E-05   -0.60991E-05  3352   0.170E-02    0.232E-02
RMM:   4    -0.116029869020E+04   -0.50633E-05   -0.19156E-05  3205   0.557E-03    0.193E-02
RMM:   5    -0.116029870060E+04   -0.10403E-04   -0.70648E-06  2697   0.375E-03    0.159E-02
RMM:   6    -0.116029871152E+04   -0.10919E-04   -0.35566E-06  2125   0.299E-03    0.165E-02
RMM:   7    -0.116029869573E+04    0.15788E-04   -0.42043E-06  2133   0.359E-03    0.144E-02
RMM:   8    -0.116029869418E+04    0.15530E-05   -0.15038E-06  1427   0.225E-03
   9 F= -.11602987E+04 E0= -.11602945E+04  d E =-.354222E-03  mag=     8.0228
       N       E                     dE             d eps       ncg     rms          rms(c)
DAV:   1    -0.116029882504E+04   -0.12931E-03   -0.18093E-01  6256   0.488E-01    0.928E-02
RMM:   2    -0.116029924952E+04   -0.42448E-03   -0.43499E-03  6173   0.805E-02    0.553E-02
RMM:   3    -0.116029925563E+04   -0.61166E-05   -0.18847E-04  3789   0.283E-02    0.359E-02
RMM:   4    -0.116029926847E+04   -0.12837E-04   -0.53144E-05  3444   0.987E-03    0.247E-02
RMM:   5    -0.116029930255E+04   -0.34077E-04   -0.20439E-05  3289   0.618E-03    0.247E-02
RMM:   6    -0.116029931219E+04   -0.96485E-05   -0.73352E-06  2926   0.434E-03    0.257E-02
RMM:   7    -0.116029927525E+04    0.36941E-04   -0.90773E-06  3014   0.479E-03    0.205E-02
RMM:   8    -0.116029927092E+04    0.43359E-05   -0.52201E-06  2228   0.323E-03
  10 F= -.11602993E+04 E0= -.11602951E+04  d E =-.576737E-03  mag=     8.0231
