       N       E                     dE             d eps       ncg     rms          rms(c)
DAV:   1    -0.116118870511E+04   -0.11612E+04   -0.11950E-05  3752   0.623E-03    0.359E-03
RMM:   2    -0.116118870565E+04   -0.53743E-06   -0.52358E-06  2752   0.436E-03    0.293E-03
RMM:   3    -0.116118870605E+04   -0.40270E-06   -0.33323E-06  1969   0.252E-03    0.150E-03
RMM:   4    -0.116118870623E+04   -0.17992E-06   -0.14006E-06  1549   0.258E-03    0.114E-03
RMM:   5    -0.116118870637E+04   -0.13995E-06   -0.66142E-07  1115   0.209E-03    0.984E-04
RMM:   6    -0.116118870654E+04   -0.16887E-06   -0.47359E-07  1066   0.209E-03    0.688E-04
RMM:   7    -0.116118870660E+04   -0.55894E-07   -0.21352E-07   857   0.198E-03    0.696E-04
RMM:   8    -0.116118870663E+04   -0.28071E-07   -0.99545E-08   697   0.193E-03
   1 F= -.11611887E+04 E0= -.11611887E+04  d E =-.116119E+04  mag=     8.0000
       N       E                     dE             d eps       ncg     rms          rms(c)
DAV:   1    -0.116118902228E+04   -0.31568E-03   -0.29191E-01  6368   0.632E-01    0.188E-01
RMM:   2    -0.116118954067E+04   -0.51839E-03   -0.89245E-03  6146   0.121E-01    0.161E-01
RMM:   3    -0.116118946607E+04    0.74605E-04   -0.44450E-04  5191   0.420E-02    0.105E-01
RMM:   4    -0.116118938138E+04    0.84688E-04   -0.32998E-04  5100   0.206E-02    0.506E-02
RMM:   5    -0.116118936334E+04    0.18040E-04   -0.54019E-05  3633   0.124E-02    0.181E-02
RMM:   6    -0.116118936467E+04   -0.13352E-05   -0.18135E-05  3458   0.558E-03    0.127E-02
RMM:   7    -0.116118936527E+04   -0.59546E-06   -0.68562E-06  3000   0.416E-03    0.780E-03
RMM:   8    -0.116118936560E+04   -0.33023E-06   -0.36100E-06  2699   0.311E-03
   2 F= -.11611894E+04 E0= -.11611894E+04  d E =-.658972E-03  mag=     8.0000
       N       E                     dE             d eps       ncg     rms          rms(c)
DAV:   1    -0.116119015227E+04   -0.78700E-03   -0.55472E-02  6128   0.271E-01    0.784E-02
RMM:   2    -0.116119018801E+04   -0.35736E-04   -0.18449E-03  6073   0.540E-02    0.726E-02
RMM:   3    -0.116119015150E+04    0.36508E-04   -0.78414E-05  3551   0.184E-02    0.488E-02
RMM:   4    -0.116119012157E+04    0.29933E-04   -0.10974E-04  3558   0.115E-02    0.324E-02
RMM:   5    -0.116119011817E+04    0.33908E-05   -0.18986E-05  3338   0.659E-03    0.146E-02
RMM:   6    -0.116119011781E+04    0.36438E-06   -0.69266E-06  2980   0.371E-03    0.126E-02
RMM:   7    -0.116119011785E+04   -0.41473E-07   -0.29748E-06  2361   0.310E-03    0.838E-03
RMM:   8    -0.116119011797E+04   -0.11672E-06   -0.16072E-06  1910   0.233E-03
   3 F= -.11611901E+04 E0= -.11611901E+04  d E =-.752370E-03  mag=     8.0000
