       N       E                     dE             d eps       ncg     rms          rms(c)
DAV:   1    -0.116514991680E+04   -0.11651E+04   -0.59271E-06  7600   0.497E-03    0.951E-03
RMM:   2    -0.116514991667E+04    0.13129E-06   -0.47467E-06  5035   0.279E-03    0.109E-02
RMM:   3    -0.116514991556E+04    0.11079E-05   -0.75155E-07  2913   0.199E-03    0.172E-03
RMM:   4    -0.116514991556E+04    0.16298E-08   -0.65976E-09  1163   0.183E-03    0.162E-03
RMM:   5    -0.116514991557E+04   -0.16254E-07   -0.21410E-07  1131   0.187E-03    0.369E-04
RMM:   6    -0.116514991558E+04   -0.52678E-08   -0.52438E-08   841   0.181E-03    0.193E-04
RMM:   7    -0.116514991558E+04   -0.59663E-09   -0.13515E-08   704   0.179E-03    0.141E-04
RMM:   8    -0.116514991558E+04   -0.20955E-08   -0.26587E-08   669   0.179E-03
   1 F= -.11651499E+04 E0= -.11651445E+04  d E =-.116515E+04  mag=     2.1776
       N       E                     dE             d eps       ncg     rms          rms(c)
DAV:   1    -0.116515002558E+04   -0.11000E-03   -0.88654E-02 12224   0.342E-01    0.939E-02
RMM:   2    -0.116515014014E+04   -0.11456E-03   -0.29364E-03 12180   0.672E-02    0.934E-02
RMM:   3    -0.116515009512E+04    0.45016E-04   -0.93171E-05  7308   0.142E-02    0.629E-02
RMM:   4    -0.116515006122E+04    0.33905E-04   -0.11096E-04  7173   0.113E-02    0.291E-02
RMM:   5    -0.116515005110E+04    0.10120E-04   -0.23013E-05  6531   0.536E-03    0.124E-02
RMM:   6    -0.116515005092E+04    0.18037E-06   -0.54299E-06  5132   0.278E-03    0.929E-03
RMM:   7    -0.116515005088E+04    0.36060E-07   -0.15354E-06  3734   0.211E-03    0.578E-03
RMM:   8    -0.116515005090E+04   -0.13359E-07   -0.25608E-07  2942   0.195E-03
   2 F= -.11651501E+04 E0= -.11651447E+04  d E =-.135316E-03  mag=     2.1758
       N       E                     dE             d eps       ncg     rms          rms(c)
DAV:   1    -0.116515032553E+04   -0.27464E-03   -0.18619E-02 12304   0.154E-01    0.472E-02
RMM:   2    -0.116515033123E+04   -0.57046E-05   -0.67932E-04 11232   0.317E-02    0.478E-02
RMM:   3    -0.116515031687E+04    0.14364E-04   -0.24452E-05  6340   0.689E-03    0.322E-02
RMM:   4    -0.116515030522E+04    0.11641E-04   -0.36807E-05  6182   0.638E-03    0.139E-02
RMM:   5    -0.116515030224E+04    0.29863E-05   -0.60260E-06  4860   0.292E-03    0.761E-03
RMM:   6    -0.116515030199E+04    0.24696E-06   -0.24987E-07  2350   0.180E-03    0.483E-03
RMM:   7    -0.116515030200E+04   -0.89494E-08   -0.52380E-07  1968   0.190E-03    0.225E-03
RMM:   8    -0.116515030199E+04    0.96188E-08   -0.15932E-07  1201   0.188E-03
   3 F= -.11651503E+04 E0= -.11651450E+04  d E =-.251095E-03  mag=     2.1751
