       N       E                     dE             d eps       ncg     rms          rms(c)
DAV:   1    -0.116463510443E+04   -0.11646E+04   -0.52452E-06  7384   0.441E-03    0.572E-03
RMM:   2    -0.116463510458E+04   -0.14699E-06   -0.34824E-06  4933   0.257E-03    0.485E-03
RMM:   3    -0.116463510439E+04    0.18465E-06   -0.86677E-07  2984   0.199E-03    0.866E-04
RMM:   4    -0.116463510441E+04   -0.20300E-07   -0.20840E-07  1421   0.186E-03    0.652E-04
RMM:   5    -0.116463510443E+04   -0.15236E-07   -0.80868E-08  1066   0.185E-03    0.486E-04
RMM:   6    -0.116463510444E+04   -0.14450E-07   -0.35807E-08   940   0.185E-03    0.369E-04
RMM:   7    -0.116463510445E+04   -0.10914E-07   -0.21651E-08   892   0.186E-03    0.298E-04
RMM:   8    -0.116463510446E+04   -0.94878E-08   -0.20377E-08   866   0.187E-03
   1 F= -.11646351E+04 E0= -.11646327E+04  d E =-.116464E+04  mag=    -0.0565
       N       E                     dE             d eps       ncg     rms          rms(c)
DAV:   1    -0.116463481570E+04    0.28875E-03   -0.15823E-01 12416   0.452E-01    0.118E-01
RMM:   2    -0.116463517289E+04   -0.35719E-03   -0.43688E-03 12217   0.812E-02    0.960E-02
RMM:   3    -0.116463515175E+04    0.21139E-04   -0.16287E-04  7669   0.187E-02    0.655E-02
RMM:   4    -0.116463514054E+04    0.11211E-04   -0.81004E-05  7351   0.100E-02    0.382E-02
RMM:   5    -0.116463513395E+04    0.65901E-05   -0.31527E-05  6862   0.610E-03    0.125E-02
RMM:   6    -0.116463513411E+04   -0.16042E-06   -0.81952E-06  5747   0.345E-03    0.829E-03
RMM:   7    -0.116463513432E+04   -0.20536E-06   -0.29589E-06  3984   0.238E-03    0.481E-03
RMM:   8    -0.116463513470E+04   -0.37794E-06   -0.20917E-06  4029   0.229E-03
   2 F= -.11646351E+04 E0= -.11646327E+04  d E =-.302339E-04  mag=    -0.0565
       N       E                     dE             d eps       ncg     rms          rms(c)
DAV:   1    -0.116463518299E+04   -0.48675E-04   -0.37593E-02 12288   0.220E-01    0.646E-02
RMM:   2    -0.116463525638E+04   -0.73384E-04   -0.11352E-03 11854   0.414E-02    0.607E-02
RMM:   3    -0.116463524489E+04    0.11483E-04   -0.42044E-05  6543   0.935E-03    0.433E-02
RMM:   4    -0.116463523965E+04    0.52400E-05   -0.29482E-05  6440   0.586E-03    0.227E-02
RMM:   5    -0.116463523606E+04    0.35956E-05   -0.10468E-05  5380   0.358E-03    0.836E-03
RMM:   6    -0.116463523596E+04    0.10271E-06   -0.18099E-06  3606   0.212E-03    0.505E-03
RMM:   7    -0.116463523595E+04    0.10768E-07   -0.10162E-07  2266   0.175E-03    0.296E-03
RMM:   8    -0.116463523598E+04   -0.39188E-07   -0.11313E-07  1699   0.183E-03
   3 F= -.11646352E+04 E0= -.11646328E+04  d E =-.101288E-03  mag=    -0.0568
