       N       E                     dE             d eps       ncg     rms          rms(c)
DAV:   1     0.117989336286E+05    0.11799E+05   -0.41772E+05  6168   0.130E+03
DAV:   2     0.614043015611E+03   -0.11185E+05   -0.99946E+04  6144   0.372E+02
DAV:   3    -0.137410834506E+04   -0.19882E+04   -0.19176E+04  6624   0.163E+02
DAV:   4    -0.150424502304E+04   -0.13014E+03   -0.12798E+03  8168   0.429E+01
DAV:   5    -0.151196801503E+04   -0.77230E+01   -0.76936E+01 11008   0.908E+00    0.180E+02
RMM:   6    -0.116829340858E+04    0.34367E+03   -0.15721E+03  6247   0.337E+01    0.952E+01
RMM:   7    -0.115537765062E+04    0.12916E+02   -0.60102E+01  6369   0.969E+00    0.562E+01
RMM:   8    -0.116397337827E+04   -0.85957E+01   -0.37115E+01  6273   0.667E+00    0.224E+01
RMM:   9    -0.116396987150E+04    0.35068E-02   -0.80294E+00  6440   0.236E+00    0.115E+01
RMM:  10    -0.116276346536E+04    0.12064E+01   -0.19070E+00  6466   0.116E+00    0.693E+00
RMM:  11    -0.116388505058E+04   -0.11216E+01   -0.19584E+00  6331   0.114E+00    0.484E+00
RMM:  12    -0.116439057693E+04   -0.50553E+00   -0.53446E-01  6812   0.623E-01    0.323E+00
RMM:  13    -0.116481768159E+04   -0.42710E+00   -0.36540E-01  6351   0.534E-01    0.180E+00
RMM:  14    -0.116493012266E+04   -0.11244E+00   -0.13975E-01  6677   0.336E-01    0.107E+00
RMM:  15    -0.116496913849E+04   -0.39016E-01   -0.70179E-02  6671   0.225E-01    0.624E-01
RMM:  16    -0.116497300415E+04   -0.38657E-02   -0.18707E-02  7082   0.121E-01    0.227E-01
RMM:  17    -0.116497451186E+04   -0.15077E-02   -0.55311E-03  7673   0.590E-02    0.178E-01
RMM:  18    -0.116497462815E+04   -0.11629E-03   -0.13056E-03  6556   0.276E-02    0.881E-02
RMM:  19    -0.116497466768E+04   -0.39528E-04   -0.39797E-04  5018   0.153E-02
   1 F= -.11649747E+04 E0= -.11649666E+04  d E =-.116497E+04  mag=     1.8982
       N       E                     dE             d eps       ncg     rms          rms(c)
DAV:   1    -0.116504933581E+04   -0.74708E-01   -0.16377E+02  7184   0.142E+01    0.477E+00
RMM:   2    -0.116549314489E+04   -0.44381E+00   -0.68947E+00  6144   0.303E+00    0.502E+00
RMM:   3    -0.116543469718E+04    0.58448E-01   -0.32423E-01  6524   0.696E-01    0.327E+00
RMM:   4    -0.116542129052E+04    0.13407E-01   -0.16131E-01  6737   0.373E-01    0.176E+00
RMM:   5    -0.116540394680E+04    0.17344E-01   -0.48670E-02  6774   0.205E-01    0.564E-01
RMM:   6    -0.116540386924E+04    0.77563E-04   -0.68647E-03  7791   0.675E-02    0.363E-01
RMM:   7    -0.116540402715E+04   -0.15792E-03   -0.28867E-03  6995   0.465E-02    0.200E-01
RMM:   8    -0.116540427666E+04   -0.24951E-03   -0.13046E-03  6701   0.321E-02    0.727E-02
RMM:   9    -0.116540431927E+04   -0.42609E-04   -0.33700E-04  4955   0.157E-02
   2 F= -.11654043E+04 E0= -.11653961E+04  d E =-.429652E+00  mag=     1.9476
       N       E                     dE             d eps       ncg     rms          rms(c)
DAV:   1    -0.116540202867E+04    0.22480E-02   -0.24469E+00  7112   0.179E+00    0.588E-01
RMM:   2    -0.116540845952E+04   -0.64309E-02   -0.86767E-02  6144   0.359E-01    0.652E-01
RMM:   3    -0.116540758243E+04    0.87710E-03   -0.38919E-03  6180   0.777E-02    0.457E-01
RMM:   4    -0.116540773674E+04   -0.15431E-03   -0.27918E-03  6030   0.481E-02    0.284E-01
RMM:   5    -0.116540732295E+04    0.41379E-03   -0.13100E-03  5702   0.324E-02    0.743E-02
RMM:   6    -0.116540731914E+04    0.38071E-05   -0.13123E-04  4143   0.110E-02    0.500E-02
RMM:   7    -0.116540732349E+04   -0.43448E-05   -0.42977E-05  3741   0.715E-03    0.269E-02
RMM:   8    -0.116540733199E+04   -0.85057E-05   -0.26232E-05  3621   0.613E-03
   3 F= -.11654073E+04 E0= -.11653980E+04  d E =-.432664E+00  mag=     1.9722
       N       E                     dE             d eps       ncg     rms          rms(c)
DAV:   1    -0.116549019299E+04   -0.82869E-01   -0.36796E+01  6632   0.709E+00    0.194E+00
RMM:   2    -0.116557211431E+04   -0.81921E-01   -0.11483E+00  6146   0.130E+00    0.167E+00
RMM:   3    -0.116556478597E+04    0.73283E-02   -0.47186E-02  6722   0.278E-01    0.104E+00
RMM:   4    -0.116556114917E+04    0.36368E-02   -0.19794E-02  6869   0.133E-01    0.623E-01
RMM:   5    -0.116555874216E+04    0.24070E-02   -0.63528E-03  6825   0.748E-02    0.120E-01
RMM:   6    -0.116555879691E+04   -0.54754E-04   -0.98361E-04  6818   0.253E-02    0.838E-02
RMM:   7    -0.116555882172E+04   -0.24805E-04   -0.42551E-04  5254   0.161E-02    0.544E-02
RMM:   8    -0.116555884922E+04   -0.27502E-04   -0.25304E-04  4774   0.133E-02
   4 F= -.11655588E+04 E0= -.11655511E+04  d E =-.151517E+00  mag=     1.9663
       N       E                     dE             d eps       ncg     rms          rms(c)
DAV:   1    -0.116556257273E+04   -0.37510E-02   -0.46494E+00  6816   0.251E+00    0.691E-01
RMM:   2    -0.116557327155E+04   -0.10699E-01   -0.14577E-01  6146   0.458E-01    0.589E-01
RMM:   3    -0.116557245767E+04    0.81388E-03   -0.62170E-03  6700   0.990E-02    0.376E-01
RMM:   4    -0.116557212962E+04    0.32804E-03   -0.31708E-03  6576   0.506E-02    0.220E-01
RMM:   5    -0.116557189159E+04    0.23803E-03   -0.98331E-04  6053   0.287E-02    0.593E-02
RMM:   6    -0.116557190892E+04   -0.17326E-04   -0.19546E-04  4341   0.119E-02    0.442E-02
RMM:   7    -0.116557191517E+04   -0.62542E-05   -0.82915E-05  3850   0.875E-03    0.300E-02
RMM:   8    -0.116557192971E+04   -0.14535E-04   -0.61974E-05  3704   0.764E-03
   5 F= -.11655719E+04 E0= -.11655625E+04  d E =-.164598E+00  mag=     1.9598
       N       E                     dE             d eps       ncg     rms          rms(c)
DAV:   1    -0.116558565841E+04   -0.13743E-01   -0.28859E+01  6352   0.636E+00    0.184E+00
RMM:   2    -0.116566287544E+04   -0.77217E-01   -0.89900E-01  6144   0.115E+00    0.177E+00
RMM:   3    -0.116565893821E+04    0.39372E-02   -0.43220E-02  6601   0.263E-01    0.111E+00
RMM:   4    -0.116566486868E+04   -0.59305E-02   -0.19698E-02  6881   0.125E-01    0.808E-01
RMM:   5    -0.116566827683E+04   -0.34082E-02   -0.14794E-02  6775   0.110E-01    0.438E-01
RMM:   6    -0.116566915882E+04   -0.88199E-03   -0.33836E-03  7030   0.501E-02    0.317E-01
RMM:   7    -0.116567128637E+04   -0.21276E-02   -0.36268E-03  6470   0.544E-02    0.208E-01
RMM:   8    -0.116567221121E+04   -0.92484E-03   -0.18892E-03  6090   0.417E-02    0.858E-02
RMM:   9    -0.116567242803E+04   -0.21681E-03   -0.52004E-04  5298   0.211E-02    0.679E-02
RMM:  10    -0.116567247253E+04   -0.44509E-04   -0.20181E-04  4355   0.132E-02
   6 F= -.11656725E+04 E0= -.11656675E+04  d E =-.100543E+00  mag=     1.9715
       N       E                     dE             d eps       ncg     rms          rms(c)
DAV:   1    -0.116568063677E+04   -0.82087E-02   -0.33271E+00  6528   0.217E+00    0.571E-01
RMM:   2    -0.116568851065E+04   -0.78739E-02   -0.10171E-01  6148   0.392E-01    0.552E-01
RMM:   3    -0.116568801300E+04    0.49765E-03   -0.43738E-03  6535   0.879E-02    0.360E-01
RMM:   4    -0.116568790259E+04    0.11042E-03   -0.17875E-03  6342   0.400E-02    0.216E-01
RMM:   5    -0.116568778500E+04    0.11759E-03   -0.74017E-04  5609   0.257E-02    0.546E-02
RMM:   6    -0.116568780056E+04   -0.15566E-04   -0.10614E-04  4073   0.107E-02    0.492E-02
RMM:   7    -0.116568781257E+04   -0.12001E-04   -0.46033E-05  3725   0.699E-03    0.271E-02
RMM:   8    -0.116568782840E+04   -0.15835E-04   -0.39918E-05  3612   0.697E-03
   7 F= -.11656878E+04 E0= -.11656836E+04  d E =-.115899E+00  mag=     1.9744
       N       E                     dE             d eps       ncg     rms          rms(c)
DAV:   1    -0.116565632410E+04    0.31488E-01   -0.13318E+01  6400   0.435E+00    0.114E+00
RMM:   2    -0.116568771614E+04   -0.31392E-01   -0.39986E-01  6148   0.783E-01    0.112E+00
RMM:   3    -0.116568562612E+04    0.20900E-02   -0.17498E-02  6527   0.176E-01    0.730E-01
RMM:   4    -0.116568501055E+04    0.61557E-03   -0.67448E-03  6789   0.796E-02    0.433E-01
RMM:   5    -0.116568465319E+04    0.35736E-03   -0.29990E-03  6636   0.514E-02    0.112E-01
RMM:   6    -0.116568471301E+04   -0.59820E-04   -0.52702E-04  5657   0.216E-02    0.935E-02
RMM:   7    -0.116568474988E+04   -0.36868E-04   -0.18257E-04  4424   0.119E-02    0.609E-02
RMM:   8    -0.116568481793E+04   -0.68052E-04   -0.16556E-04  4117   0.125E-02
   8 F= -.11656848E+04 E0= -.11656817E+04  d E =-.112888E+00  mag=     1.9798
       N       E                     dE             d eps       ncg     rms          rms(c)
DAV:   1    -0.116568310039E+04    0.16495E-02   -0.42380E+00  6496   0.246E+00    0.648E-01
RMM:   2    -0.116569302525E+04   -0.99249E-02   -0.12681E-01  6148   0.443E-01    0.620E-01
RMM:   3    -0.116569234589E+04    0.67936E-03   -0.54907E-03  6343   0.995E-02    0.402E-01
RMM:   4    -0.116569211774E+04    0.22815E-03   -0.21243E-03  6425   0.450E-02    0.234E-01
RMM:   5    -0.116569198904E+04    0.12870E-03   -0.81304E-04  5751   0.269E-02    0.686E-02
RMM:   6    -0.116569199748E+04   -0.84338E-05   -0.15604E-04  4198   0.128E-02    0.535E-02
RMM:   7    -0.116569200421E+04   -0.67339E-05   -0.45831E-05  3682   0.696E-03    0.358E-02
RMM:   8    -0.116569202583E+04   -0.21622E-04   -0.52794E-05  3651   0.766E-03
   9 F= -.11656920E+04 E0= -.11656885E+04  d E =-.120096E+00  mag=     1.9775
       N       E                     dE             d eps       ncg     rms          rms(c)
DAV:   1    -0.116568074845E+04    0.11256E-01   -0.22467E+01  6400   0.558E+00    0.132E+00
RMM:   2    -0.116573739481E+04   -0.56646E-01   -0.65648E-01  6148   0.100E+00    0.142E+00
RMM:   3    -0.116573423379E+04    0.31610E-02   -0.29577E-02  6523   0.226E-01    0.933E-01
RMM:   4    -0.116573291978E+04    0.13140E-02   -0.10500E-02  6802   0.101E-01    0.552E-01
RMM:   5    -0.116573287138E+04    0.48395E-04   -0.59575E-03  6580   0.732E-02    0.160E-01
RMM:   6    -0.116573310644E+04   -0.23506E-03   -0.92147E-04  6226   0.282E-02    0.127E-01
RMM:   7    -0.116573327573E+04   -0.16928E-03   -0.35735E-04  5034   0.167E-02    0.773E-02
RMM:   8    -0.116573341341E+04   -0.13768E-03   -0.26323E-04  4500   0.162E-02    0.322E-02
RMM:   9    -0.116573341490E+04   -0.14915E-05   -0.65336E-05  3801   0.815E-03
  10 F= -.11657334E+04 E0= -.11657312E+04  d E =-.413891E-01  mag=     1.9808
       N       E                     dE             d eps       ncg     rms          rms(c)
DAV:   1    -0.116573213686E+04    0.12765E-02   -0.11265E+00  6720   0.125E+00    0.295E-01
RMM:   2    -0.116573497922E+04   -0.28424E-02   -0.32842E-02  6149   0.225E-01    0.312E-01
RMM:   3    -0.116573483266E+04    0.14656E-03   -0.15394E-03  6384   0.510E-02    0.209E-01
RMM:   4    -0.116573475831E+04    0.74354E-04   -0.56828E-04  5320   0.233E-02    0.113E-01
RMM:   5    -0.116573477250E+04   -0.14190E-04   -0.23803E-04  4428   0.166E-02    0.432E-02
RMM:   6    -0.116573478509E+04   -0.12589E-04   -0.62519E-05  3770   0.873E-03    0.321E-02
RMM:   7    -0.116573479012E+04   -0.50302E-05   -0.22505E-05  3524   0.538E-03    0.246E-02
RMM:   8    -0.116573480243E+04   -0.12310E-04   -0.28244E-05  3531   0.549E-03
  11 F= -.11657348E+04 E0= -.11657327E+04  d E =-.427766E-01  mag=     1.9811
       N       E                     dE             d eps       ncg     rms          rms(c)
DAV:   1    -0.116574956567E+04   -0.14776E-01   -0.91625E+00  6464   0.344E+00    0.881E-01
RMM:   2    -0.116577176818E+04   -0.22203E-01   -0.25826E-01  6148   0.629E-01    0.988E-01
RMM:   3    -0.116577020539E+04    0.15628E-02   -0.11480E-02  6641   0.135E-01    0.694E-01
RMM:   4    -0.116576895140E+04    0.12540E-02   -0.52502E-03  6436   0.698E-02    0.347E-01
RMM:   5    -0.116576875702E+04    0.19439E-03   -0.19297E-03  6098   0.426E-02    0.111E-01
RMM:   6    -0.116576874917E+04    0.78438E-05   -0.39314E-04  4919   0.185E-02    0.708E-02
RMM:   7    -0.116576875149E+04   -0.23202E-05   -0.69763E-05  3928   0.880E-03    0.532E-02
RMM:   8    -0.116576878034E+04   -0.28848E-04   -0.84753E-05  3761   0.941E-03
  12 F= -.11657688E+04 E0= -.11657669E+04  d E =-.339779E-01  mag=     1.9787
       N       E                     dE             d eps       ncg     rms          rms(c)
DAV:   1    -0.116576864833E+04    0.10316E-03   -0.23903E+00  6432   0.176E+00    0.448E-01
RMM:   2    -0.116577434677E+04   -0.56984E-02   -0.67864E-02  6148   0.322E-01    0.502E-01
RMM:   3    -0.116577393270E+04    0.41407E-03   -0.30072E-03  6667   0.691E-02    0.355E-01
RMM:   4    -0.116577359226E+04    0.34044E-03   -0.14078E-03  5746   0.361E-02    0.173E-01
RMM:   5    -0.116577352856E+04    0.63697E-04   -0.48078E-04  5249   0.216E-02    0.597E-02
RMM:   6    -0.116577352686E+04    0.16985E-05   -0.10062E-04  3993   0.105E-02    0.372E-02
RMM:   7    -0.116577352774E+04   -0.88154E-06   -0.27306E-05  3547   0.553E-03    0.256E-02
RMM:   8    -0.116577353411E+04   -0.63643E-05   -0.25216E-05  3490   0.556E-03
  13 F= -.11657735E+04 E0= -.11657717E+04  d E =-.387317E-01  mag=     1.9774
       N       E                     dE             d eps       ncg     rms          rms(c)
DAV:   1    -0.116577413873E+04   -0.61098E-03   -0.10525E+01  6480   0.374E+00    0.873E-01
RMM:   2    -0.116580353967E+04   -0.29401E-01   -0.30290E-01  6148   0.673E-01    0.955E-01
RMM:   3    -0.116580170372E+04    0.18359E-02   -0.13270E-02  6561   0.148E-01    0.632E-01
RMM:   4    -0.116580071436E+04    0.98936E-03   -0.49914E-03  6697   0.676E-02    0.322E-01
RMM:   5    -0.116580084003E+04   -0.12567E-03   -0.22159E-03  6399   0.448E-02    0.115E-01
RMM:   6    -0.116580090465E+04   -0.64617E-04   -0.44573E-04  5034   0.207E-02    0.736E-02
RMM:   7    -0.116580091300E+04   -0.83525E-05   -0.10216E-04  3955   0.103E-02    0.568E-02
RMM:   8    -0.116580096040E+04   -0.47407E-04   -0.95189E-05  3825   0.100E-02
  14 F= -.11658010E+04 E0= -.11657992E+04  d E =-.274263E-01  mag=     1.9753
       N       E                     dE             d eps       ncg     rms          rms(c)
DAV:   1    -0.116579824853E+04    0.26645E-02   -0.32291E+00  6480   0.207E+00    0.480E-01
RMM:   2    -0.116580690936E+04   -0.86608E-02   -0.93326E-02  6148   0.374E-01    0.511E-01
RMM:   3    -0.116580636414E+04    0.54522E-03   -0.40724E-03  6578   0.817E-02    0.339E-01
RMM:   4    -0.116580605840E+04    0.30574E-03   -0.14958E-03  6181   0.367E-02    0.175E-01
RMM:   5    -0.116580605475E+04    0.36501E-05   -0.63457E-04  5374   0.243E-02    0.628E-02
RMM:   6    -0.116580606621E+04   -0.11459E-04   -0.11484E-04  3970   0.119E-02    0.394E-02
RMM:   7    -0.116580606712E+04   -0.90746E-06   -0.37075E-05  3665   0.642E-03    0.280E-02
RMM:   8    -0.116580607736E+04   -0.10238E-04   -0.29688E-05  3548   0.622E-03
  15 F= -.11658061E+04 E0= -.11658043E+04  d E =-.325432E-01  mag=     1.9741
       N       E                     dE             d eps       ncg     rms          rms(c)
DAV:   1    -0.116580523619E+04    0.83093E-03   -0.78602E+00  6392   0.326E+00    0.758E-01
RMM:   2    -0.116582445632E+04   -0.19220E-01   -0.23138E-01  6148   0.582E-01    0.732E-01
RMM:   3    -0.116582309266E+04    0.13637E-02   -0.93588E-03  6604   0.128E-01    0.502E-01
RMM:   4    -0.116582248277E+04    0.60989E-03   -0.33613E-03  6625   0.544E-02    0.312E-01
RMM:   5    -0.116582200110E+04    0.48167E-03   -0.17208E-03  6350   0.365E-02    0.855E-02
RMM:   6    -0.116582196985E+04    0.31252E-04   -0.21577E-04  4287   0.148E-02    0.535E-02
RMM:   7    -0.116582196155E+04    0.82937E-05   -0.71712E-05  3751   0.910E-03    0.349E-02
RMM:   8    -0.116582196587E+04   -0.43153E-05   -0.47960E-05  3628   0.752E-03
  16 F= -.11658220E+04 E0= -.11658203E+04  d E =-.158885E-01  mag=     1.9748
       N       E                     dE             d eps       ncg     rms          rms(c)
DAV:   1    -0.116582165800E+04    0.30355E-03   -0.42237E-01  6720   0.755E-01    0.176E-01
RMM:   2    -0.116582270590E+04   -0.10479E-02   -0.12556E-02  6148   0.135E-01    0.170E-01
RMM:   3    -0.116582262641E+04    0.79495E-04   -0.47481E-04  4996   0.299E-02    0.118E-01
RMM:   4    -0.116582259368E+04    0.32727E-04   -0.17556E-04  3933   0.140E-02    0.729E-02
RMM:   5    -0.116582257167E+04    0.22016E-04   -0.96982E-05  3859   0.102E-02    0.234E-02
RMM:   6    -0.116582257153E+04    0.13616E-06   -0.25210E-05  3481   0.598E-03    0.127E-02
RMM:   7    -0.116582257205E+04   -0.52054E-06   -0.11171E-05  3089   0.358E-03    0.104E-02
RMM:   8    -0.116582257260E+04   -0.54874E-06   -0.60030E-06  2934   0.314E-03
  17 F= -.11658226E+04 E0= -.11658209E+04  d E =-.164952E-01  mag=     1.9751
       N       E                     dE             d eps       ncg     rms          rms(c)
DAV:   1    -0.116582114095E+04    0.14311E-02   -0.55789E+00  6416   0.272E+00    0.601E-01
RMM:   2    -0.116583318802E+04   -0.12047E-01   -0.14358E-01  6148   0.451E-01    0.436E-01
RMM:   3    -0.116583255497E+04    0.63305E-03   -0.58910E-03  6197   0.109E-01    0.276E-01
RMM:   4    -0.116583220164E+04    0.35333E-03   -0.22291E-03  6403   0.446E-02    0.125E-01
RMM:   5    -0.116583209801E+04    0.10363E-03   -0.46501E-04  5484   0.192E-02    0.419E-02
RMM:   6    -0.116583210222E+04   -0.42050E-05   -0.79168E-05  3695   0.931E-03    0.273E-02
RMM:   7    -0.116583210423E+04   -0.20176E-05   -0.40863E-05  3546   0.634E-03    0.165E-02
RMM:   8    -0.116583210677E+04   -0.25377E-05   -0.23762E-05  3465   0.533E-03
  18 F= -.11658321E+04 E0= -.11658305E+04  d E =-.953417E-02  mag=     1.9762
       N       E                     dE             d eps       ncg     rms          rms(c)
DAV:   1    -0.116583108056E+04    0.10237E-02   -0.94661E-01  6432   0.112E+00    0.247E-01
RMM:   2    -0.116583314743E+04   -0.20669E-02   -0.24521E-02  6148   0.186E-01    0.179E-01
RMM:   3    -0.116583303599E+04    0.11144E-03   -0.10247E-03  5945   0.450E-02    0.113E-01
RMM:   4    -0.116583297431E+04    0.61685E-04   -0.37153E-04  4912   0.187E-02    0.525E-02
RMM:   5    -0.116583295815E+04    0.16152E-04   -0.71894E-05  3660   0.942E-03    0.170E-02
RMM:   6    -0.116583296083E+04   -0.26740E-05   -0.24047E-05  3477   0.566E-03    0.112E-02
RMM:   7    -0.116583296170E+04   -0.87327E-06   -0.13026E-05  3289   0.396E-03    0.821E-03
RMM:   8    -0.116583296244E+04   -0.74237E-06   -0.72340E-06  2977   0.317E-03
  19 F= -.11658330E+04 E0= -.11658314E+04  d E =-.103898E-01  mag=     1.9767
       N       E                     dE             d eps       ncg     rms          rms(c)
DAV:   1    -0.116583013685E+04    0.28248E-02   -0.47957E+00  6400   0.250E+00    0.435E-01
RMM:   2    -0.116583981164E+04   -0.96748E-02   -0.11699E-01  6148   0.411E-01    0.344E-01
RMM:   3    -0.116583939227E+04    0.41937E-03   -0.47483E-03  6277   0.954E-02    0.225E-01
RMM:   4    -0.116583910079E+04    0.29148E-03   -0.17563E-03  6067   0.382E-02    0.143E-01
RMM:   5    -0.116583889344E+04    0.20734E-03   -0.50077E-04  5376   0.197E-02    0.354E-02
RMM:   6    -0.116583889397E+04   -0.52190E-06   -0.61952E-05  3699   0.858E-03    0.281E-02
RMM:   7    -0.116583889527E+04   -0.13012E-05   -0.32702E-05  3536   0.634E-03    0.171E-02
RMM:   8    -0.116583889827E+04   -0.30018E-05   -0.22679E-05  3499   0.534E-03
  20 F= -.11658389E+04 E0= -.11658373E+04  d E =-.593582E-02  mag=     1.9766
       N       E                     dE             d eps       ncg     rms          rms(c)
DAV:   1    -0.116583872168E+04    0.17358E-03   -0.24808E-01  6672   0.569E-01    0.983E-02
RMM:   2    -0.116583922666E+04   -0.50498E-03   -0.61130E-03  6084   0.935E-02    0.788E-02
RMM:   3    -0.116583919944E+04    0.27221E-04   -0.21904E-04  4083   0.220E-02    0.530E-02
RMM:   4    -0.116583918363E+04    0.15815E-04   -0.91246E-05  3599   0.103E-02    0.293E-02
RMM:   5    -0.116583917657E+04    0.70617E-05   -0.32991E-05  3514   0.607E-03    0.957E-03
RMM:   6    -0.116583917726E+04   -0.69698E-06   -0.10959E-05  3284   0.379E-03    0.712E-03
RMM:   7    -0.116583917772E+04   -0.46111E-06   -0.50465E-06  2524   0.272E-03    0.469E-03
RMM:   8    -0.116583917807E+04   -0.34830E-06   -0.27554E-06  2154   0.241E-03
  21 F= -.11658392E+04 E0= -.11658376E+04  d E =-.621563E-02  mag=     1.9766
       N       E                     dE             d eps       ncg     rms          rms(c)
DAV:   1    -0.116583653541E+04    0.26423E-02   -0.36188E+00  6352   0.222E+00    0.396E-01
RMM:   2    -0.116584412697E+04   -0.75916E-02   -0.92702E-02  6148   0.374E-01    0.320E-01
RMM:   3    -0.116584382656E+04    0.30040E-03   -0.37871E-03  6410   0.851E-02    0.213E-01
RMM:   4    -0.116584359047E+04    0.23609E-03   -0.12299E-03  6124   0.326E-02    0.135E-01
RMM:   5    -0.116584345371E+04    0.13676E-03   -0.45051E-04  5368   0.195E-02    0.313E-02
RMM:   6    -0.116584345108E+04    0.26320E-05   -0.58119E-05  3674   0.857E-03    0.242E-02
RMM:   7    -0.116584345251E+04   -0.14355E-05   -0.30026E-05  3532   0.609E-03    0.148E-02
RMM:   8    -0.116584345464E+04   -0.21220E-05   -0.20563E-05  3473   0.513E-03
  22 F= -.11658435E+04 E0= -.11658419E+04  d E =-.427656E-02  mag=     1.9761
       N       E                     dE             d eps       ncg     rms          rms(c)
DAV:   1    -0.116584340323E+04    0.49288E-04   -0.67104E-02  6672   0.303E-01    0.538E-02
RMM:   2    -0.116584354914E+04   -0.14592E-03   -0.17672E-03  6075   0.513E-02    0.436E-02
RMM:   3    -0.116584354092E+04    0.82219E-05   -0.58536E-05  3544   0.120E-02    0.295E-02
RMM:   4    -0.116584353742E+04    0.35059E-05   -0.28343E-05  3501   0.591E-03    0.164E-02
RMM:   5    -0.116584353600E+04    0.14127E-05   -0.11285E-05  3257   0.358E-03    0.507E-03
RMM:   6    -0.116584353621E+04   -0.20297E-06   -0.31339E-06  2326   0.250E-03    0.309E-03
RMM:   7    -0.116584353632E+04   -0.10971E-06   -0.97134E-07  1549   0.205E-03    0.208E-03
RMM:   8    -0.116584353638E+04   -0.61234E-07   -0.46664E-07  1212   0.201E-03
  23 F= -.11658435E+04 E0= -.11658420E+04  d E =-.435831E-02  mag=     1.9760
       N       E                     dE             d eps       ncg     rms          rms(c)
DAV:   1    -0.116584082752E+04    0.27088E-02   -0.29356E+00  6384   0.203E+00    0.399E-01
RMM:   2    -0.116584714211E+04   -0.63146E-02   -0.77666E-02  6148   0.342E-01    0.303E-01
RMM:   3    -0.116584689290E+04    0.24922E-03   -0.31952E-03  6359   0.796E-02    0.197E-01
RMM:   4    -0.116584676397E+04    0.12893E-03   -0.11522E-03  6281   0.312E-02    0.123E-01
RMM:   5    -0.116584664376E+04    0.12021E-03   -0.33886E-04  4865   0.170E-02    0.342E-02
RMM:   6    -0.116584664383E+04   -0.76921E-07   -0.56124E-05  3596   0.830E-03    0.214E-02
RMM:   7    -0.116584664534E+04   -0.15056E-05   -0.31998E-05  3518   0.645E-03    0.154E-02
RMM:   8    -0.116584664691E+04   -0.15664E-05   -0.19132E-05  3420   0.482E-03
  24 F= -.11658466E+04 E0= -.11658450E+04  d E =-.311053E-02  mag=     1.9756
       N       E                     dE             d eps       ncg     rms          rms(c)
DAV:   1    -0.116584655560E+04    0.89736E-04   -0.70832E-02  6576   0.315E-01    0.620E-02
RMM:   2    -0.116584671257E+04   -0.15697E-03   -0.19205E-03  6106   0.535E-02    0.471E-02
RMM:   3    -0.116584670381E+04    0.87658E-05   -0.63168E-05  3534   0.127E-02    0.312E-02
RMM:   4    -0.116584670160E+04    0.22102E-05   -0.33246E-05  3518   0.629E-03    0.171E-02
RMM:   5    -0.116584669992E+04    0.16744E-05   -0.12543E-05  3358   0.370E-03    0.537E-03
RMM:   6    -0.116584670017E+04   -0.24409E-06   -0.34912E-06  2402   0.252E-03    0.359E-03
RMM:   7    -0.116584670028E+04   -0.11474E-06   -0.11159E-06  1564   0.207E-03    0.226E-03
RMM:   8    -0.116584670034E+04   -0.59110E-07   -0.55316E-07  1242   0.201E-03
  25 F= -.11658467E+04 E0= -.11658451E+04  d E =-.316396E-02  mag=     1.9755
       N       E                     dE             d eps       ncg     rms          rms(c)
DAV:   1    -0.116584468060E+04    0.20197E-02   -0.21348E+00  6320   0.172E+00    0.341E-01
RMM:   2    -0.116584924367E+04   -0.45631E-02   -0.56210E-02  6148   0.290E-01    0.273E-01
RMM:   3    -0.116584904027E+04    0.20340E-03   -0.22642E-03  6258   0.672E-02    0.176E-01
RMM:   4    -0.116584892456E+04    0.11571E-03   -0.84302E-04  5945   0.269E-02    0.106E-01
RMM:   5    -0.116584883096E+04    0.93602E-04   -0.21117E-04  4283   0.147E-02    0.241E-02
RMM:   6    -0.116584883543E+04   -0.44738E-05   -0.47888E-05  3558   0.786E-03    0.146E-02
RMM:   7    -0.116584883710E+04   -0.16713E-05   -0.24975E-05  3450   0.590E-03    0.130E-02
RMM:   8    -0.116584883835E+04   -0.12441E-05   -0.15065E-05  3294   0.421E-03
  26 F= -.11658488E+04 E0= -.11658472E+04  d E =-.213801E-02  mag=     1.9756
       N       E                     dE             d eps       ncg     rms          rms(c)
DAV:   1    -0.116584878418E+04    0.52927E-04   -0.40588E-02  6592   0.237E-01    0.472E-02
RMM:   2    -0.116584887547E+04   -0.91292E-04   -0.11123E-03  6048   0.404E-02    0.379E-02
RMM:   3    -0.116584886992E+04    0.55489E-05   -0.37392E-05  3493   0.968E-03    0.247E-02
RMM:   4    -0.116584886856E+04    0.13654E-05   -0.19310E-05  3406   0.481E-03    0.134E-02
RMM:   5    -0.116584886746E+04    0.10912E-05   -0.66764E-06  2897   0.292E-03    0.354E-03
RMM:   6    -0.116584886761E+04   -0.14785E-06   -0.17770E-06  1678   0.217E-03    0.214E-03
RMM:   7    -0.116584886767E+04   -0.54672E-07   -0.48089E-07   979   0.192E-03    0.143E-03
RMM:   8    -0.116584886768E+04   -0.15687E-07   -0.16870E-07   817   0.189E-03
  27 F= -.11658489E+04 E0= -.11658472E+04  d E =-.216734E-02  mag=     1.9757
       N       E                     dE             d eps       ncg     rms          rms(c)
DAV:   1    -0.116584810490E+04    0.76277E-03   -0.86057E-01  6432   0.107E+00    0.204E-01
RMM:   2    -0.116584987014E+04   -0.17652E-02   -0.22633E-02  6140   0.183E-01    0.179E-01
RMM:   3    -0.116584977871E+04    0.91425E-04   -0.91113E-04  5960   0.410E-02    0.120E-01
RMM:   4    -0.116584969877E+04    0.79935E-04   -0.35103E-04  4991   0.178E-02    0.693E-02
RMM:   5    -0.116584965760E+04    0.41179E-04   -0.88355E-05  3857   0.102E-02    0.171E-02
RMM:   6    -0.116584965934E+04   -0.17414E-05   -0.21149E-05  3451   0.537E-03    0.119E-02
RMM:   7    -0.116584966020E+04   -0.86497E-06   -0.10901E-05  3295   0.382E-03    0.871E-03
RMM:   8    -0.116584966071E+04   -0.50983E-06   -0.59360E-06  2995   0.300E-03
  28 F= -.11658497E+04 E0= -.11658481E+04  d E =-.793029E-03  mag=     1.9756
       N       E                     dE             d eps       ncg     rms          rms(c)
DAV:   1    -0.116584964682E+04    0.13382E-04   -0.14132E-02  6576   0.137E-01    0.265E-02
RMM:   2    -0.116584967314E+04   -0.26325E-04   -0.34620E-04  4193   0.237E-02    0.256E-02
RMM:   3    -0.116584967377E+04   -0.62565E-06   -0.20607E-05  3198   0.724E-03    0.144E-02
RMM:   4    -0.116584967297E+04    0.79784E-06   -0.50822E-06  2611   0.293E-03    0.127E-02
RMM:   5    -0.116584967188E+04    0.10919E-05   -0.15188E-06  1751   0.209E-03    0.296E-03
RMM:   6    -0.116584967193E+04   -0.51252E-07   -0.69104E-07   853   0.177E-03    0.144E-03
RMM:   7    -0.116584967192E+04    0.70286E-08   -0.16937E-08   491   0.152E-03    0.904E-04
RMM:   8    -0.116584967193E+04   -0.64756E-08   -0.56102E-08   494   0.152E-03
  29 F= -.11658497E+04 E0= -.11658481E+04  d E =-.804249E-03  mag=     1.9756
