       N       E                     dE             d eps       ncg     rms          rms(c)
DAV:   1    -0.116355220352E+04   -0.11636E+04   -0.24372E-06  3408   0.225E-03    0.166E-03
RMM:   2    -0.116355220385E+04   -0.32825E-06   -0.34767E-07   850   0.154E-03    0.150E-03
RMM:   3    -0.116355220398E+04   -0.13577E-06   -0.11677E-07   526   0.143E-03    0.148E-03
RMM:   4    -0.116355220390E+04    0.77736E-07   -0.32751E-08   391   0.139E-03    0.142E-03
RMM:   5    -0.116355220362E+04    0.28843E-06   -0.38304E-08   413   0.140E-03    0.169E-03
RMM:   6    -0.116355220380E+04   -0.18159E-06   -0.71176E-09   267   0.137E-03    0.155E-03
RMM:   7    -0.116355220503E+04   -0.12367E-05   -0.17618E-06  1092   0.210E-03    0.153E-03
RMM:   8    -0.116355220569E+04   -0.65468E-06   -0.11709E-06   671   0.176E-03
   1 F= -.11635522E+04 E0= -.11635493E+04  d E =-.116355E+04  mag=    -2.0270
       N       E                     dE             d eps       ncg     rms          rms(c)
DAV:   1    -0.116355232817E+04   -0.12313E-03   -0.11644E-01  6176   0.397E-01    0.103E-01
RMM:   2    -0.116355253320E+04   -0.20503E-03   -0.35953E-03  6106   0.768E-02    0.976E-02
RMM:   3    -0.116355249704E+04    0.36157E-04   -0.13079E-04  3710   0.239E-02    0.657E-02
RMM:   4    -0.116355247074E+04    0.26301E-04   -0.93096E-05  3584   0.121E-02    0.524E-02
RMM:   5    -0.116355246208E+04    0.86618E-05   -0.27203E-05  3396   0.825E-03    0.166E-02
RMM:   6    -0.116355246152E+04    0.55195E-06   -0.10809E-05  3060   0.447E-03    0.129E-02
RMM:   7    -0.116355246181E+04   -0.28448E-06   -0.43400E-06  2757   0.385E-03    0.809E-03
RMM:   8    -0.116355246210E+04   -0.28800E-06   -0.20096E-06  2094   0.239E-03
   2 F= -.11635525E+04 E0= -.11635495E+04  d E =-.256408E-03  mag=    -2.0269
       N       E                     dE             d eps       ncg     rms          rms(c)
DAV:   1    -0.116355269769E+04   -0.23588E-03   -0.21303E-02  6080   0.167E-01    0.493E-02
RMM:   2    -0.116355272215E+04   -0.24461E-04   -0.70853E-04  5663   0.338E-02    0.471E-02
RMM:   3    -0.116355271101E+04    0.11139E-04   -0.29747E-05  3210   0.105E-02    0.314E-02
RMM:   4    -0.116355270180E+04    0.92094E-05   -0.31161E-05  3114   0.670E-03    0.227E-02
RMM:   5    -0.116355269988E+04    0.19183E-05   -0.74293E-06  2712   0.459E-03    0.931E-03
RMM:   6    -0.116355269985E+04    0.30064E-07   -0.26929E-06  2058   0.258E-03    0.683E-03
RMM:   7    -0.116355269995E+04   -0.10087E-06   -0.10055E-06  1429   0.242E-03    0.433E-03
RMM:   8    -0.116355270013E+04   -0.17436E-06   -0.39829E-07  1028   0.199E-03
   3 F= -.11635527E+04 E0= -.11635497E+04  d E =-.238029E-03  mag=    -2.0270
