       N       E                     dE             d eps       ncg     rms          rms(c)
DAV:   1    -0.117222381288E+04   -0.11722E+04   -0.17896E-05  4432   0.129E-02    0.249E-02
RMM:   2    -0.117222381419E+04   -0.13025E-05   -0.17040E-05  3185   0.594E-03    0.375E-02
RMM:   3    -0.117222381502E+04   -0.83432E-06   -0.45871E-06  2629   0.347E-03    0.736E-03
RMM:   4    -0.117222381623E+04   -0.12141E-05   -0.21173E-06  1815   0.243E-03    0.722E-03
RMM:   5    -0.117222381740E+04   -0.11612E-05   -0.16705E-06  1809   0.254E-03    0.701E-03
RMM:   6    -0.117222381871E+04   -0.13165E-05   -0.12833E-06  1525   0.217E-03    0.546E-03
RMM:   7    -0.117222382053E+04   -0.18170E-05   -0.17656E-06  1709   0.231E-03    0.576E-03
RMM:   8    -0.117222382248E+04   -0.19560E-05   -0.25178E-06  1878   0.240E-03
   1 F= -.11722238E+04 E0= -.11722238E+04  d E =-.117222E+04  mag=     6.0000
       N       E                     dE             d eps       ncg     rms          rms(c)
DAV:   1    -0.117222409162E+04   -0.27109E-03   -0.20014E-01  6256   0.519E-01    0.128E-01
RMM:   2    -0.117222454101E+04   -0.44939E-03   -0.57879E-03  6112   0.974E-02    0.117E-01
RMM:   3    -0.117222451553E+04    0.25476E-04   -0.20717E-04  4050   0.263E-02    0.770E-02
RMM:   4    -0.117222448366E+04    0.31871E-04   -0.11551E-04  3662   0.134E-02    0.471E-02
RMM:   5    -0.117222448025E+04    0.34177E-05   -0.33072E-05  3456   0.846E-03    0.254E-02
RMM:   6    -0.117222448169E+04   -0.14481E-05   -0.12766E-05  3204   0.480E-03    0.115E-02
RMM:   7    -0.117222448271E+04   -0.10203E-05   -0.53467E-06  2694   0.369E-03    0.101E-02
RMM:   8    -0.117222448402E+04   -0.13042E-05   -0.40681E-06  2541   0.282E-03
   2 F= -.11722245E+04 E0= -.11722245E+04  d E =-.661535E-03  mag=     6.0000
       N       E                     dE             d eps       ncg     rms          rms(c)
DAV:   1    -0.117222473527E+04   -0.25256E-03   -0.50195E-02  6080   0.258E-01    0.621E-02
RMM:   2    -0.117222483014E+04   -0.94865E-04   -0.14197E-03  6016   0.484E-02    0.638E-02
RMM:   3    -0.117222482108E+04    0.90601E-05   -0.53559E-05  3396   0.142E-02    0.458E-02
RMM:   4    -0.117222481444E+04    0.66430E-05   -0.27165E-05  3257   0.677E-03    0.286E-02
RMM:   5    -0.117222481210E+04    0.23377E-05   -0.14027E-05  2926   0.526E-03    0.313E-02
RMM:   6    -0.117222481284E+04   -0.74552E-06   -0.48499E-06  2415   0.340E-03    0.657E-03
RMM:   7    -0.117222481330E+04   -0.45642E-06   -0.15331E-06  1680   0.237E-03    0.520E-03
RMM:   8    -0.117222481394E+04   -0.64107E-06   -0.15356E-06  1649   0.238E-03
   3 F= -.11722248E+04 E0= -.11722248E+04  d E =-.329921E-03  mag=     6.0000
