       N       E                     dE             d eps       ncg     rms          rms(c)
DAV:   1    -0.116514990745E+04   -0.11651E+04   -0.56992E-06  7672   0.482E-03    0.934E-03
RMM:   2    -0.116514990731E+04    0.14367E-06   -0.44852E-06  4916   0.271E-03    0.107E-02
RMM:   3    -0.116514990621E+04    0.10922E-05   -0.63731E-07  2805   0.194E-03    0.179E-03
RMM:   4    -0.116514990621E+04    0.74215E-09   -0.95555E-09  1134   0.181E-03    0.166E-03
RMM:   5    -0.116514990623E+04   -0.16065E-07   -0.22286E-07  1083   0.186E-03    0.348E-04
RMM:   6    -0.116514990623E+04   -0.21246E-08   -0.30420E-08   735   0.179E-03    0.150E-04
RMM:   7    -0.116514990623E+04   -0.90222E-09   -0.17806E-08   619   0.179E-03    0.118E-04
RMM:   8    -0.116514990623E+04   -0.21100E-08   -0.21542E-08   558   0.178E-03
   1 F= -.11651499E+04 E0= -.11651445E+04  d E =-.116515E+04  mag=     2.1769
       N       E                     dE             d eps       ncg     rms          rms(c)
DAV:   1    -0.116514996544E+04   -0.59207E-04   -0.78240E-02 12256   0.321E-01    0.858E-02
RMM:   2    -0.116515008153E+04   -0.11609E-03   -0.25039E-03 12134   0.621E-02    0.834E-02
RMM:   3    -0.116515004648E+04    0.35048E-04   -0.79388E-05  7218   0.133E-02    0.559E-02
RMM:   4    -0.116515002039E+04    0.26089E-04   -0.85539E-05  7066   0.100E-02    0.261E-02
RMM:   5    -0.116515001268E+04    0.77125E-05   -0.18007E-05  6312   0.482E-03    0.103E-02
RMM:   6    -0.116515001258E+04    0.95155E-07   -0.43420E-06  5011   0.256E-03    0.767E-03
RMM:   7    -0.116515001254E+04    0.37035E-07   -0.11377E-06  3503   0.197E-03    0.464E-03
RMM:   8    -0.116515001255E+04   -0.10303E-07   -0.13917E-07  2736   0.182E-03
   2 F= -.11651500E+04 E0= -.11651447E+04  d E =-.106319E-03  mag=     2.1755
       N       E                     dE             d eps       ncg     rms          rms(c)
DAV:   1    -0.116515026890E+04   -0.25635E-03   -0.14679E-02 12160   0.137E-01    0.425E-02
RMM:   2    -0.116515027314E+04   -0.42383E-05   -0.53268E-04 11164   0.280E-02    0.407E-02
RMM:   3    -0.116515026120E+04    0.11939E-04   -0.20606E-05  6278   0.635E-03    0.269E-02
RMM:   4    -0.116515025185E+04    0.93518E-05   -0.30378E-05  6107   0.580E-03    0.117E-02
RMM:   5    -0.116515024977E+04    0.20747E-05   -0.44081E-06  4589   0.261E-03    0.673E-03
RMM:   6    -0.116515024956E+04    0.20899E-06   -0.12071E-07  2230   0.174E-03    0.419E-03
RMM:   7    -0.116515024956E+04    0.97498E-09   -0.31331E-07  1459   0.185E-03    0.186E-03
RMM:   8    -0.116515024956E+04    0.43365E-08   -0.13518E-07  1116   0.186E-03
   3 F= -.11651502E+04 E0= -.11651449E+04  d E =-.237004E-03  mag=     2.1748
