       N       E                     dE             d eps       ncg     rms          rms(c)
DAV:   1    -0.116441841432E+04   -0.11644E+04   -0.25507E-06  6928   0.192E-03    0.105E-03
RMM:   2    -0.116441841434E+04   -0.14843E-07   -0.14527E-09  1150   0.129E-03    0.582E-04
RMM:   3    -0.116441841435E+04   -0.74797E-08    0.00000E+00   555   0.129E-03    0.370E-04
RMM:   4    -0.116441841436E+04   -0.13344E-07    0.00000E+00   410   0.129E-03    0.972E-05
RMM:   5    -0.116441841436E+04   -0.23574E-08    0.00000E+00   324   0.129E-03    0.458E-05
RMM:   6    -0.116441841436E+04   -0.69849E-09    0.00000E+00   260   0.129E-03    0.317E-05
RMM:   7    -0.116441841436E+04    0.29104E-10    0.00000E+00   226   0.129E-03    0.201E-05
RMM:   8    -0.116441841436E+04   -0.29104E-10    0.00000E+00   208   0.129E-03
   1 F= -.11644184E+04 E0= -.11644135E+04  d E =-.116442E+04  mag=     3.9809
       N       E                     dE             d eps       ncg     rms          rms(c)
DAV:   1    -0.116441839695E+04    0.17410E-04   -0.96282E-02 12032   0.345E-01    0.666E-02
RMM:   2    -0.116441861080E+04   -0.21384E-03   -0.24548E-03 11948   0.592E-02    0.486E-02
RMM:   3    -0.116441859921E+04    0.11589E-04   -0.76869E-05  6449   0.136E-02    0.325E-02
RMM:   4    -0.116441859186E+04    0.73471E-05   -0.37133E-05  6204   0.696E-03    0.127E-02
RMM:   5    -0.116441859145E+04    0.40708E-06   -0.77961E-06  5145   0.335E-03    0.509E-03
RMM:   6    -0.116441859151E+04   -0.59241E-07   -0.16889E-06  3124   0.201E-03    0.278E-03
RMM:   7    -0.116441859153E+04   -0.14974E-07   -0.35491E-07  1852   0.180E-03    0.150E-03
RMM:   8    -0.116441859154E+04   -0.12878E-07   -0.12280E-07  1237   0.179E-03
   2 F= -.11644186E+04 E0= -.11644137E+04  d E =-.177177E-03  mag=     3.9808
       N       E                     dE             d eps       ncg     rms          rms(c)
DAV:   1    -0.116441866594E+04   -0.74414E-04   -0.27068E-02 12032   0.182E-01    0.431E-02
RMM:   2    -0.116441871968E+04   -0.53740E-04   -0.72943E-04 11103   0.318E-02    0.348E-02
RMM:   3    -0.116441871343E+04    0.62540E-05   -0.26001E-05  6120   0.766E-03    0.231E-02
RMM:   4    -0.116441870981E+04    0.36158E-05   -0.17551E-05  5666   0.470E-03    0.961E-03
RMM:   5    -0.116441870904E+04    0.76961E-06   -0.32147E-06  4183   0.241E-03    0.389E-03
RMM:   6    -0.116441870901E+04    0.33935E-07   -0.18498E-07  1779   0.174E-03    0.231E-03
RMM:   7    -0.116441870902E+04   -0.13199E-07   -0.49030E-08  1119   0.174E-03    0.111E-03
RMM:   8    -0.116441870903E+04   -0.68831E-08   -0.27701E-08  1024   0.174E-03
   3 F= -.11644187E+04 E0= -.11644138E+04  d E =-.117488E-03  mag=     3.9809
       N       E                     dE             d eps       ncg     rms          rms(c)
DAV:   1    -0.116441874813E+04   -0.39113E-04   -0.52672E-02 12032   0.254E-01    0.440E-02
RMM:   2    -0.116441886499E+04   -0.11685E-03   -0.12985E-03 11390   0.424E-02    0.300E-02
RMM:   3    -0.116441886017E+04    0.48212E-05   -0.42579E-05  6352   0.101E-02    0.203E-02
RMM:   4    -0.116441885691E+04    0.32580E-05   -0.19811E-05  6065   0.510E-03    0.732E-03
RMM:   5    -0.116441885705E+04   -0.14555E-06   -0.39463E-06  4386   0.256E-03    0.328E-03
RMM:   6    -0.116441885713E+04   -0.75277E-07   -0.10020E-06  2330   0.192E-03    0.195E-03
RMM:   7    -0.116441885714E+04   -0.79890E-08   -0.18623E-07  1299   0.181E-03    0.100E-03
RMM:   8    -0.116441885714E+04   -0.32742E-08   -0.24209E-08  1084   0.179E-03
   4 F= -.11644189E+04 E0= -.11644140E+04  d E =-.148113E-03  mag=     3.9808
       N       E                     dE             d eps       ncg     rms          rms(c)
DAV:   1    -0.116441890593E+04   -0.48789E-04   -0.40503E-02 12032   0.222E-01    0.363E-02
RMM:   2    -0.116441899528E+04   -0.89353E-04   -0.96951E-04 11073   0.362E-02    0.234E-02
RMM:   3    -0.116441899201E+04    0.32705E-05   -0.32517E-05  6297   0.888E-03    0.153E-02
RMM:   4    -0.116441898999E+04    0.20232E-05   -0.13717E-05  5833   0.430E-03    0.589E-03
RMM:   5    -0.116441899001E+04   -0.26805E-07   -0.23711E-06  3694   0.226E-03    0.185E-03
RMM:   6    -0.116441899007E+04   -0.52984E-07   -0.52081E-07  1690   0.192E-03    0.112E-03
RMM:   7    -0.116441899007E+04   -0.62864E-08   -0.78752E-08  1168   0.185E-03    0.526E-04
RMM:   8    -0.116441899007E+04    0.36380E-09   -0.15094E-08  1086   0.184E-03
   5 F= -.11644190E+04 E0= -.11644141E+04  d E =-.132931E-03  mag=     3.9808
