       N       E                     dE             d eps       ncg     rms          rms(c)
DAV:   1     0.119045416382E+05    0.11905E+05   -0.42102E+05 12352   0.131E+03
DAV:   2     0.652737666255E+03   -0.11252E+05   -0.10049E+05 12304   0.375E+02
DAV:   3    -0.136073554047E+04   -0.20135E+04   -0.19405E+04 13208   0.165E+02
DAV:   4    -0.149441848217E+04   -0.13368E+03   -0.13134E+03 16176   0.445E+01
DAV:   5    -0.150300874495E+04   -0.85903E+01   -0.85484E+01 22264   0.102E+01    0.183E+02
RMM:   6    -0.116373963187E+04    0.33927E+03   -0.16020E+03 12518   0.348E+01    0.111E+02
RMM:   7    -0.114878710588E+04    0.14953E+02   -0.68231E+01 12830   0.107E+01    0.712E+01
RMM:   8    -0.115210455930E+04   -0.33175E+01   -0.24987E+01 13215   0.586E+00    0.452E+01
RMM:   9    -0.115558273604E+04   -0.34782E+01   -0.98532E+00 13126   0.354E+00    0.142E+01
RMM:  10    -0.115654568660E+04   -0.96295E+00   -0.55543E+00 13656   0.267E+00    0.180E+01
RMM:  11    -0.115724999916E+04   -0.70431E+00   -0.17693E+00 13519   0.143E+00    0.972E+00
RMM:  12    -0.115820459308E+04   -0.95459E+00   -0.16420E+00 13510   0.111E+00    0.640E+00
RMM:  13    -0.115869742113E+04   -0.49283E+00   -0.32974E-01 14060   0.592E-01    0.545E+00
RMM:  14    -0.115916839183E+04   -0.47097E+00   -0.42032E-01 12825   0.696E-01    0.359E+00
RMM:  15    -0.115935539356E+04   -0.18700E+00   -0.32817E-01 13253   0.664E-01    0.208E+00
RMM:  16    -0.115941437279E+04   -0.58979E-01   -0.17132E-01 13616   0.444E-01    0.110E+00
RMM:  17    -0.115943817106E+04   -0.23798E-01   -0.79716E-02 14186   0.292E-01    0.600E-01
RMM:  18    -0.115945175820E+04   -0.13587E-01   -0.29567E-02 14934   0.161E-01    0.377E-01
RMM:  19    -0.115946059890E+04   -0.88407E-02   -0.11830E-02 13931   0.995E-02    0.312E-01
RMM:  20    -0.115946742502E+04   -0.68261E-02   -0.55218E-03 11855   0.720E-02    0.291E-01
RMM:  21    -0.115947516439E+04   -0.77394E-02   -0.56161E-03 11254   0.758E-02    0.285E-01
RMM:  22    -0.115948320230E+04   -0.80379E-02   -0.61996E-03 11083   0.784E-02    0.279E-01
RMM:  23    -0.115950064811E+04   -0.17446E-01   -0.22129E-02 11208   0.158E-01    0.260E-01
RMM:  24    -0.115951490162E+04   -0.14254E-01   -0.22265E-02 11462   0.144E-01    0.256E-01
RMM:  25    -0.115952355628E+04   -0.86547E-02   -0.11934E-02 11513   0.909E-02    0.257E-01
RMM:  26    -0.115952772390E+04   -0.41676E-02   -0.35760E-03 10708   0.464E-02    0.257E-01
RMM:  27    -0.115952456986E+04    0.31540E-02   -0.73955E-04  9079   0.371E-02    0.259E-01
RMM:  28    -0.115947651823E+04    0.48052E-01   -0.98072E-02 11902   0.323E-01    0.377E-01
RMM:  29    -0.115951698613E+04   -0.40468E-01   -0.40825E-02 11700   0.229E-01    0.267E-01
RMM:  30    -0.115953420976E+04   -0.17224E-01   -0.36302E-02 11369   0.193E-01    0.235E-01
RMM:  31    -0.115954861454E+04   -0.14405E-01   -0.29591E-02 11460   0.145E-01    0.236E-01
RMM:  32    -0.115955872413E+04   -0.10110E-01   -0.22949E-02 11413   0.126E-01    0.254E-01
RMM:  33    -0.115956282423E+04   -0.41001E-02   -0.54122E-03 10819   0.553E-02    0.257E-01
RMM:  34    -0.115956559520E+04   -0.27710E-02   -0.18659E-03  9469   0.331E-02    0.248E-01
RMM:  35    -0.115957148075E+04   -0.58856E-02   -0.21110E-03  9291   0.413E-02    0.192E-01
RMM:  36    -0.115958247743E+04   -0.10997E-01   -0.12062E-02 10404   0.953E-02    0.154E-01
RMM:  37    -0.115957400998E+04    0.84674E-02   -0.31734E-03  9874   0.649E-02    0.171E-01
RMM:  38    -0.115957407771E+04   -0.67730E-04   -0.26590E-04  7368   0.142E-02
   1 F= -.11595741E+04 E0= -.11595741E+04  d E =-.115957E+04  mag=     5.9980
       N       E                     dE             d eps       ncg     rms          rms(c)
DAV:   1    -0.113265865327E+04    0.26915E+02   -0.21020E+03 12696   0.472E+01    0.353E+01
RMM:   2    -0.115164449255E+04   -0.18986E+02   -0.27312E+02 13238   0.116E+01    0.192E+01
RMM:   3    -0.115765342744E+04   -0.60089E+01   -0.46162E+01 14038   0.484E+00    0.169E+01
RMM:   4    -0.115299191789E+04    0.46615E+01   -0.66305E+00 13959   0.205E+00    0.116E+01
RMM:   5    -0.115549377337E+04   -0.25019E+01   -0.67877E+00 13362   0.135E+00    0.274E+01
RMM:   6    -0.115251489363E+04    0.29789E+01   -0.26668E+00 12932   0.110E+00    0.676E+00
RMM:   7    -0.115262514154E+04   -0.11025E+00   -0.13237E+00 13827   0.845E-01    0.433E+00
RMM:   8    -0.115249919763E+04    0.12594E+00   -0.18197E-01 12984   0.398E-01    0.389E+00
RMM:   9    -0.115227077587E+04    0.22842E+00   -0.89376E-02 13490   0.219E-01    0.266E+00
RMM:  10    -0.115222682751E+04    0.43948E-01   -0.22944E-02 14492   0.119E-01    0.219E+00
RMM:  11    -0.115220795571E+04    0.18872E-01   -0.10487E-02 14194   0.786E-02    0.187E+00
RMM:  12    -0.115216785679E+04    0.40099E-01   -0.32737E-02 12787   0.142E-01    0.961E-01
RMM:  13    -0.115216659525E+04    0.12615E-02   -0.96516E-03 14029   0.797E-02    0.703E-01
RMM:  14    -0.115216735051E+04   -0.75525E-03   -0.61063E-03 12729   0.663E-02    0.410E-01
RMM:  15    -0.115217203391E+04   -0.46834E-02   -0.58254E-03 11896   0.752E-02    0.259E-01
RMM:  16    -0.115217375620E+04   -0.17223E-02   -0.21319E-03 11008   0.401E-02    0.217E-01
RMM:  17    -0.115217678280E+04   -0.30266E-02   -0.35467E-03 11011   0.553E-02    0.112E-01
RMM:  18    -0.115218075053E+04   -0.39677E-02   -0.62470E-03 10867   0.751E-02    0.136E-01
RMM:  19    -0.115218296360E+04   -0.22131E-02   -0.38512E-03 10176   0.519E-02    0.148E-01
RMM:  20    -0.115218430190E+04   -0.13383E-02   -0.17009E-03  9533   0.330E-02    0.154E-01
RMM:  21    -0.115218423086E+04    0.71046E-04   -0.16629E-04  7984   0.132E-02
   2 F= -.11521842E+04 E0= -.11521842E+04  d E =0.738985E+01  mag=     6.0066
       N       E                     dE             d eps       ncg     rms          rms(c)
DAV:   1    -0.115292831714E+04   -0.74402E+00   -0.11400E+03 12528   0.263E+01    0.240E+01
RMM:   2    -0.115907405740E+04   -0.61457E+01   -0.72021E+01 12289   0.737E+00    0.245E+01
RMM:   3    -0.115873179900E+04    0.34226E+00   -0.47589E+00 13252   0.207E+00    0.177E+01
RMM:   4    -0.115772113832E+04    0.10107E+01   -0.28221E+00 13424   0.151E+00    0.938E+00
RMM:   5    -0.115752520431E+04    0.19593E+00   -0.10566E+00 13021   0.103E+00    0.242E+00
RMM:   6    -0.115750207010E+04    0.23134E-01   -0.19252E-01 13274   0.409E-01    0.133E+00
RMM:   7    -0.115749779102E+04    0.42791E-02   -0.42573E-02 15614   0.177E-01    0.768E-01
RMM:   8    -0.115749665650E+04    0.11345E-02   -0.14752E-02 14329   0.104E-01    0.286E-01
RMM:   9    -0.115749741103E+04   -0.75453E-03   -0.32353E-03 15006   0.539E-02    0.253E-01
RMM:  10    -0.115749894917E+04   -0.15381E-02   -0.98582E-04 13227   0.261E-02    0.441E-01
RMM:  11    -0.115749758390E+04    0.13653E-02   -0.98498E-04 12504   0.271E-02    0.294E-01
RMM:  12    -0.115749718221E+04    0.40169E-03   -0.68097E-04 11411   0.235E-02    0.269E-01
RMM:  13    -0.115749701252E+04    0.16970E-03   -0.44337E-04 10082   0.206E-02    0.267E-01
RMM:  14    -0.115749684756E+04    0.16496E-03   -0.15117E-04  8487   0.139E-02    0.247E-01
RMM:  15    -0.115749653074E+04    0.31682E-03   -0.17738E-04  8457   0.134E-02    0.184E-01
RMM:  16    -0.115749637942E+04    0.15132E-03   -0.11400E-03 10909   0.335E-02    0.167E-01
RMM:  17    -0.115749582094E+04    0.55848E-03   -0.10936E-03 10455   0.364E-02    0.241E-01
RMM:  18    -0.115749523716E+04    0.58378E-03   -0.43750E-04  8947   0.204E-02    0.265E-01
RMM:  19    -0.115749627654E+04   -0.10394E-02   -0.29503E-04  8672   0.222E-02    0.240E-01
RMM:  20    -0.115749661950E+04   -0.34296E-03   -0.96759E-05  7365   0.115E-02    0.227E-01
RMM:  21    -0.115749688842E+04   -0.26893E-03   -0.39876E-05  6837   0.721E-03    0.238E-01
RMM:  22    -0.115749628968E+04    0.59874E-03   -0.11001E-04  7388   0.125E-02    0.227E-01
RMM:  23    -0.115749609790E+04    0.19178E-03   -0.81372E-05  7253   0.946E-03    0.220E-01
RMM:  24    -0.115749640840E+04   -0.31050E-03   -0.62786E-05  7115   0.103E-02    0.189E-01
RMM:  25    -0.115749696170E+04   -0.55331E-03   -0.10339E-04  7388   0.121E-02    0.191E-01
RMM:  26    -0.115749780559E+04   -0.84389E-03   -0.40091E-04  9397   0.199E-02    0.251E-01
RMM:  27    -0.115749806176E+04   -0.25616E-03   -0.13377E-04  7662   0.124E-02    0.286E-01
RMM:  28    -0.115749816853E+04   -0.10677E-03   -0.64542E-05  7166   0.113E-02    0.315E-01
RMM:  29    -0.115749813239E+04    0.36136E-04   -0.11233E-04  7454   0.117E-02
   3 F= -.11574981E+04 E0= -.11574954E+04  d E =-.531390E+01  mag=     5.9913
       N       E                     dE             d eps       ncg     rms          rms(c)
DAV:   1    -0.115820061801E+04   -0.70245E+00   -0.51594E+02 12304   0.220E+01    0.811E+00
RMM:   2    -0.116036305776E+04   -0.21624E+01   -0.25053E+01 12294   0.462E+00    0.102E+01
RMM:   3    -0.116012180287E+04    0.24125E+00   -0.92908E-01 13667   0.107E+00    0.811E+00
RMM:   4    -0.116002266716E+04    0.99136E-01   -0.50542E-01 13095   0.662E-01    0.451E+00
RMM:   5    -0.115994487431E+04    0.77793E-01   -0.25505E-01 12587   0.474E-01    0.135E+00
RMM:   6    -0.115992862673E+04    0.16248E-01   -0.26053E-02 13089   0.175E-01    0.576E-01
RMM:   7    -0.115992637628E+04    0.22505E-02   -0.11893E-02 13359   0.888E-02    0.277E-01
RMM:   8    -0.115992628799E+04    0.88292E-04   -0.15477E-03 11797   0.433E-02    0.171E-01
RMM:   9    -0.115992642979E+04   -0.14180E-03   -0.10512E-03 11252   0.292E-02    0.657E-02
RMM:  10    -0.115992656300E+04   -0.13321E-03   -0.20498E-04  8400   0.185E-02    0.452E-02
RMM:  11    -0.115992670236E+04   -0.13936E-03   -0.13054E-04  8094   0.113E-02    0.397E-02
RMM:  12    -0.115992682995E+04   -0.12759E-03   -0.83599E-05  7789   0.110E-02    0.367E-02
RMM:  13    -0.115992700600E+04   -0.17605E-03   -0.11800E-04  7659   0.104E-02    0.348E-02
RMM:  14    -0.115992721740E+04   -0.21141E-03   -0.16645E-04  7673   0.112E-02    0.335E-02
RMM:  15    -0.115992760529E+04   -0.38789E-03   -0.57171E-04  8123   0.215E-02    0.311E-02
RMM:  16    -0.115992808188E+04   -0.47659E-03   -0.13143E-03  8799   0.330E-02    0.279E-02
RMM:  17    -0.115992851077E+04   -0.42889E-03   -0.17404E-03  9021   0.378E-02    0.261E-02
RMM:  18    -0.115992873472E+04   -0.22395E-03   -0.76443E-04  8210   0.215E-02    0.248E-02
RMM:  19    -0.115992876545E+04   -0.30725E-04   -0.80591E-05  6758   0.813E-03
   4 F= -.11599288E+04 E0= -.11599288E+04  d E =-.243063E+01  mag=     6.0003
       N       E                     dE             d eps       ncg     rms          rms(c)
DAV:   1    -0.116068535293E+04   -0.75662E+00   -0.74439E+01 12736   0.804E+00    0.306E+00
RMM:   2    -0.116080790709E+04   -0.12255E+00   -0.20751E+00 12296   0.150E+00    0.213E+00
RMM:   3    -0.116078109944E+04    0.26808E-01   -0.12429E-01 12573   0.477E-01    0.117E+00
RMM:   4    -0.116076603646E+04    0.15063E-01   -0.57196E-02 13006   0.221E-01    0.661E-01
RMM:   5    -0.116076269729E+04    0.33392E-02   -0.10378E-02 12941   0.115E-01    0.339E-01
RMM:   6    -0.116076261528E+04    0.82011E-04   -0.23444E-03 14534   0.391E-02    0.220E-01
RMM:   7    -0.116076265641E+04   -0.41130E-04   -0.86668E-04 12431   0.259E-02    0.101E-01
RMM:   8    -0.116076264109E+04    0.15328E-04   -0.28344E-04  9309   0.189E-02
   5 F= -.11607626E+04 E0= -.11607626E+04  d E =-.833876E+00  mag=     6.0000
       N       E                     dE             d eps       ncg     rms          rms(c)
DAV:   1    -0.116131861110E+04   -0.55595E+00   -0.67313E+01 12640   0.755E+00    0.291E+00
RMM:   2    -0.116145934711E+04   -0.14074E+00   -0.18389E+00 12296   0.141E+00    0.232E+00
RMM:   3    -0.116144700065E+04    0.12346E-01   -0.11334E-01 12555   0.465E-01    0.128E+00
RMM:   4    -0.116143912019E+04    0.78805E-02   -0.44689E-02 13098   0.190E-01    0.671E-01
RMM:   5    -0.116143599440E+04    0.31258E-02   -0.81523E-03 12952   0.100E-01    0.235E-01
RMM:   6    -0.116143602781E+04   -0.33416E-04   -0.14548E-03 13261   0.323E-02    0.137E-01
RMM:   7    -0.116143606971E+04   -0.41901E-04   -0.43885E-04 10341   0.194E-02    0.733E-02
RMM:   8    -0.116143609075E+04   -0.21034E-04   -0.15756E-04  8518   0.142E-02
   6 F= -.11614361E+04 E0= -.11614361E+04  d E =-.673450E+00  mag=     6.0000
       N       E                     dE             d eps       ncg     rms          rms(c)
DAV:   1    -0.116175375751E+04   -0.31769E+00   -0.30979E+01 12768   0.510E+00    0.208E+00
RMM:   2    -0.116181694446E+04   -0.63187E-01   -0.80402E-01 12292   0.930E-01    0.152E+00
RMM:   3    -0.116181253627E+04    0.44082E-02   -0.56571E-02 12682   0.307E-01    0.804E-01
RMM:   4    -0.116180910963E+04    0.34266E-02   -0.18330E-02 13260   0.124E-01    0.408E-01
RMM:   5    -0.116180791733E+04    0.11923E-02   -0.36023E-03 13207   0.613E-02    0.155E-01
RMM:   6    -0.116180794858E+04   -0.31242E-04   -0.66268E-04 11321   0.216E-02    0.917E-02
RMM:   7    -0.116180798924E+04   -0.40663E-04   -0.23680E-04  8848   0.156E-02    0.433E-02
RMM:   8    -0.116180800591E+04   -0.16674E-04   -0.10341E-04  7973   0.112E-02
   7 F= -.11618080E+04 E0= -.11618080E+04  d E =-.371915E+00  mag=     6.0000
       N       E                     dE             d eps       ncg     rms          rms(c)
DAV:   1    -0.116196848851E+04   -0.16050E+00   -0.68329E+01 12656   0.808E+00    0.315E+00
RMM:   2    -0.116214450108E+04   -0.17601E+00   -0.21587E+00 12289   0.160E+00    0.261E+00
RMM:   3    -0.116213261676E+04    0.11884E-01   -0.13744E-01 13651   0.470E-01    0.161E+00
RMM:   4    -0.116212500724E+04    0.76095E-02   -0.51221E-02 13274   0.219E-01    0.658E-01
RMM:   5    -0.116212201313E+04    0.29941E-02   -0.10178E-02 14741   0.998E-02    0.226E-01
RMM:   6    -0.116212202854E+04   -0.15405E-04   -0.15520E-03 14381   0.341E-02    0.136E-01
RMM:   7    -0.116212211476E+04   -0.86217E-04   -0.58508E-04 12015   0.219E-02    0.642E-02
RMM:   8    -0.116212214889E+04   -0.34133E-04   -0.24804E-04  9102   0.148E-02
   8 F= -.11621221E+04 E0= -.11621221E+04  d E =-.314143E+00  mag=     6.0000
       N       E                     dE             d eps       ncg     rms          rms(c)
DAV:   1    -0.116212581732E+04   -0.37026E-02   -0.16024E+01 12880   0.442E+00    0.145E+00
RMM:   2    -0.116216524795E+04   -0.39431E-01   -0.49379E-01 12289   0.845E-01    0.146E+00
RMM:   3    -0.116216271520E+04    0.25327E-02   -0.25700E-02 13934   0.236E-01    0.109E+00
RMM:   4    -0.116216152903E+04    0.11862E-02   -0.11193E-02 13558   0.107E-01    0.509E-01
RMM:   5    -0.116216038746E+04    0.11416E-02   -0.33850E-03 13752   0.563E-02    0.125E-01
RMM:   6    -0.116216033492E+04    0.52540E-04   -0.36830E-04  9973   0.203E-02    0.735E-02
RMM:   7    -0.116216033686E+04   -0.19421E-05   -0.16529E-04  8225   0.139E-02    0.384E-02
RMM:   8    -0.116216035766E+04   -0.20799E-04   -0.90466E-05  7614   0.118E-02
   9 F= -.11621604E+04 E0= -.11621604E+04  d E =-.382088E-01  mag=     6.0000
       N       E                     dE             d eps       ncg     rms          rms(c)
DAV:   1    -0.116216252300E+04   -0.21861E-02   -0.74212E+00 12976   0.300E+00    0.879E-01
RMM:   2    -0.116217977863E+04   -0.17256E-01   -0.21728E-01 12313   0.555E-01    0.904E-01
RMM:   3    -0.116217883037E+04    0.94826E-03   -0.10542E-02 13195   0.157E-01    0.675E-01
RMM:   4    -0.116217836593E+04    0.46444E-03   -0.45682E-03 12538   0.688E-02    0.375E-01
RMM:   5    -0.116217775430E+04    0.61163E-03   -0.14166E-03 11668   0.398E-02    0.834E-02
RMM:   6    -0.116217773408E+04    0.20222E-04   -0.18314E-04  8406   0.159E-02    0.512E-02
RMM:   7    -0.116217773178E+04    0.23006E-05   -0.62503E-05  7431   0.102E-02    0.283E-02
RMM:   8    -0.116217774033E+04   -0.85480E-05   -0.49614E-05  7213   0.902E-03
  10 F= -.11621777E+04 E0= -.11621777E+04  d E =-.173827E-01  mag=     6.0000
       N       E                     dE             d eps       ncg     rms          rms(c)
DAV:   1    -0.116218719892E+04   -0.94671E-02   -0.83978E+00 12896   0.330E+00    0.716E-01
RMM:   2    -0.116220587871E+04   -0.18680E-01   -0.21230E-01 12295   0.560E-01    0.541E-01
RMM:   3    -0.116220552573E+04    0.35298E-03   -0.10551E-02 12894   0.178E-01    0.361E-01
RMM:   4    -0.116220502983E+04    0.49591E-03   -0.33919E-03 14535   0.614E-02    0.196E-01
RMM:   5    -0.116220491869E+04    0.11114E-03   -0.85727E-04 12409   0.285E-02    0.513E-02
RMM:   6    -0.116220492867E+04   -0.99824E-05   -0.11454E-04  7816   0.145E-02    0.329E-02
RMM:   7    -0.116220495136E+04   -0.22693E-04   -0.85287E-05  7503   0.109E-02    0.197E-02
RMM:   8    -0.116220496547E+04   -0.14103E-04   -0.38626E-05  7160   0.874E-03
  11 F= -.11622050E+04 E0= -.11622050E+04  d E =-.272251E-01  mag=     6.0000
       N       E                     dE             d eps       ncg     rms          rms(c)
DAV:   1    -0.116217566786E+04    0.29284E-01   -0.26649E+01 12688   0.590E+00    0.115E+00
RMM:   2    -0.116223437698E+04   -0.58709E-01   -0.66074E-01 12308   0.992E-01    0.884E-01
RMM:   3    -0.116223350796E+04    0.86902E-03   -0.32874E-02 12822   0.329E-01    0.612E-01
RMM:   4    -0.116223223639E+04    0.12716E-02   -0.96156E-03 15880   0.107E-01    0.412E-01
RMM:   5    -0.116223179375E+04    0.44265E-03   -0.28275E-03 15311   0.485E-02    0.987E-02
RMM:   6    -0.116223182768E+04   -0.33937E-04   -0.56160E-04 11620   0.257E-02    0.514E-02
RMM:   7    -0.116223186601E+04   -0.38327E-04   -0.24243E-04  8985   0.154E-02    0.341E-02
RMM:   8    -0.116223191735E+04   -0.51341E-04   -0.16717E-04  8215   0.136E-02
  12 F= -.11622319E+04 E0= -.11622319E+04  d E =-.269519E-01  mag=     6.0000
       N       E                     dE             d eps       ncg     rms          rms(c)
DAV:   1    -0.116223200824E+04   -0.14223E-03   -0.81705E+00 12720   0.321E+00    0.727E-01
RMM:   2    -0.116225097162E+04   -0.18963E-01   -0.21915E-01 12298   0.564E-01    0.740E-01
RMM:   3    -0.116225043112E+04    0.54050E-03   -0.10220E-02 13112   0.166E-01    0.558E-01
RMM:   4    -0.116225016503E+04    0.26609E-03   -0.37665E-03 13773   0.625E-02    0.331E-01
RMM:   5    -0.116224972050E+04    0.44452E-03   -0.16398E-03 12684   0.380E-02    0.584E-02
RMM:   6    -0.116224970946E+04    0.11041E-04   -0.15628E-04  8229   0.165E-02    0.443E-02
RMM:   7    -0.116224972466E+04   -0.15200E-04   -0.97814E-05  7499   0.105E-02    0.249E-02
RMM:   8    -0.116224975237E+04   -0.27704E-04   -0.61738E-05  7233   0.107E-02
  13 F= -.11622498E+04 E0= -.11622498E+04  d E =-.178350E-01  mag=     6.0000
       N       E                     dE             d eps       ncg     rms          rms(c)
DAV:   1    -0.116224906116E+04    0.66350E-03   -0.47466E+00 12848   0.248E+00    0.428E-01
RMM:   2    -0.116225919406E+04   -0.10133E-01   -0.11397E-01 12349   0.413E-01    0.304E-01
RMM:   3    -0.116225906825E+04    0.12581E-03   -0.57083E-03 12490   0.143E-01    0.207E-01
RMM:   4    -0.116225887570E+04    0.19255E-03   -0.17477E-03 13913   0.461E-02    0.142E-01
RMM:   5    -0.116225882408E+04    0.51625E-04   -0.44978E-04 10652   0.217E-02    0.430E-02
RMM:   6    -0.116225885489E+04   -0.30811E-04   -0.11415E-04  7543   0.151E-02    0.278E-02
RMM:   7    -0.116225887842E+04   -0.23534E-04   -0.61086E-05  7198   0.102E-02    0.270E-02
RMM:   8    -0.116225890571E+04   -0.27283E-04   -0.43691E-05  7049   0.940E-03
  14 F= -.11622589E+04 E0= -.11622589E+04  d E =-.915334E-02  mag=     6.0000
       N       E                     dE             d eps       ncg     rms          rms(c)
DAV:   1    -0.116225658758E+04    0.22908E-02   -0.47241E+00 12776   0.248E+00    0.414E-01
RMM:   2    -0.116226681096E+04   -0.10223E-01   -0.11328E-01 12374   0.411E-01    0.266E-01
RMM:   3    -0.116226673920E+04    0.71761E-04   -0.56755E-03 12442   0.144E-01    0.179E-01
RMM:   4    -0.116226654474E+04    0.19447E-03   -0.17942E-03 13995   0.457E-02    0.925E-02
RMM:   5    -0.116226656254E+04   -0.17803E-04   -0.33772E-04  9722   0.203E-02    0.351E-02
RMM:   6    -0.116226659506E+04   -0.32522E-04   -0.10081E-04  7460   0.135E-02    0.267E-02
RMM:   7    -0.116226662518E+04   -0.30117E-04   -0.68815E-05  7219   0.104E-02    0.263E-02
RMM:   8    -0.116226665883E+04   -0.33651E-04   -0.47236E-05  7041   0.932E-03
  15 F= -.11622667E+04 E0= -.11622667E+04  d E =-.775312E-02  mag=     6.0000
       N       E                     dE             d eps       ncg     rms          rms(c)
DAV:   1    -0.116226584826E+04    0.77692E-03   -0.27855E+00 12832   0.191E+00    0.318E-01
RMM:   2    -0.116227194521E+04   -0.60969E-02   -0.66583E-02 12458   0.317E-01    0.206E-01
RMM:   3    -0.116227191903E+04    0.26178E-04   -0.33522E-03 12493   0.110E-01    0.138E-01
RMM:   4    -0.116227183202E+04    0.87014E-04   -0.98833E-04 12936   0.350E-02    0.794E-02
RMM:   5    -0.116227185744E+04   -0.25425E-04   -0.22695E-04  8322   0.188E-02    0.309E-02
RMM:   6    -0.116227189382E+04   -0.36384E-04   -0.73186E-05  7225   0.123E-02    0.254E-02
RMM:   7    -0.116227191759E+04   -0.23768E-04   -0.47416E-05  7026   0.965E-03    0.249E-02
RMM:   8    -0.116227195818E+04   -0.40592E-04   -0.41462E-05  6907   0.893E-03
  16 F= -.11622720E+04 E0= -.11622720E+04  d E =-.529935E-02  mag=     6.0000
       N       E                     dE             d eps       ncg     rms          rms(c)
DAV:   1    -0.116226823165E+04    0.36859E-02   -0.40337E+00 12824   0.230E+00    0.389E-01
RMM:   2    -0.116227723631E+04   -0.90047E-02   -0.96101E-02 12495   0.381E-01    0.237E-01
RMM:   3    -0.116227723195E+04    0.43622E-05   -0.47934E-03 12530   0.133E-01    0.158E-01
RMM:   4    -0.116227710440E+04    0.12755E-03   -0.13292E-03 13688   0.406E-02    0.816E-02
RMM:   5    -0.116227716392E+04   -0.59518E-04   -0.31767E-04  9041   0.202E-02    0.306E-02
RMM:   6    -0.116227720383E+04   -0.39912E-04   -0.86337E-05  7273   0.127E-02    0.253E-02
RMM:   7    -0.116227726768E+04   -0.63846E-04   -0.85244E-05  7227   0.113E-02    0.230E-02
RMM:   8    -0.116227731034E+04   -0.42666E-04   -0.51392E-05  6936   0.873E-03
  17 F= -.11622773E+04 E0= -.11622773E+04  d E =-.535216E-02  mag=     6.0000
