       N       E                     dE             d eps       ncg     rms          rms(c)
DAV:   1    -0.116030681436E+04   -0.11603E+04   -0.20146E-02  8512   0.536E-01    0.112E+00
RMM:   2    -0.116030048447E+04    0.63299E-02   -0.68554E-02  6079   0.240E-01    0.278E+00
RMM:   3    -0.116029809124E+04    0.23932E-02   -0.11774E-02  5634   0.110E-01    0.684E-01
RMM:   4    -0.116029716400E+04    0.92724E-03   -0.37093E-03  5382   0.523E-02    0.233E-01
RMM:   5    -0.116029736113E+04   -0.19713E-03   -0.77128E-04  4769   0.266E-02    0.160E-01
RMM:   6    -0.116029741529E+04   -0.54161E-04   -0.58000E-05  3611   0.868E-03    0.167E-01
RMM:   7    -0.116029724421E+04    0.17108E-03   -0.21897E-05  3239   0.703E-03    0.146E-01
RMM:   8    -0.116029675558E+04    0.48863E-03   -0.44967E-04  4524   0.227E-02    0.173E-01
RMM:   9    -0.116029673920E+04    0.16381E-04   -0.58349E-05  3584   0.969E-03
   1 F= -.11602967E+04 E0= -.11602923E+04  d E =-.116030E+04  mag=     8.0247
       N       E                     dE             d eps       ncg     rms          rms(c)
DAV:   1    -0.116029707968E+04   -0.32410E-03   -0.39454E-01  6312   0.731E-01    0.246E-01
RMM:   2    -0.116029840253E+04   -0.13228E-02   -0.13617E-02  6155   0.150E-01    0.393E-01
RMM:   3    -0.116029860582E+04   -0.20330E-03   -0.64952E-04  5468   0.474E-02    0.269E-01
RMM:   4    -0.116029937278E+04   -0.76696E-03   -0.41417E-04  4645   0.253E-02    0.325E-01
RMM:   5    -0.116029848774E+04    0.88504E-03   -0.52163E-04  4471   0.275E-02    0.228E-01
RMM:   6    -0.116029811642E+04    0.37132E-03   -0.32911E-04  4287   0.184E-02    0.234E-01
RMM:   7    -0.116029813157E+04   -0.15145E-04   -0.91160E-05  3695   0.113E-02    0.252E-01
RMM:   8    -0.116029805419E+04    0.77372E-04   -0.27460E-05  3433   0.849E-03
   2 F= -.11602981E+04 E0= -.11602938E+04  d E =-.131500E-02  mag=     8.0237
       N       E                     dE             d eps       ncg     rms          rms(c)
DAV:   1    -0.116029802802E+04    0.10355E-03   -0.83581E-02  6624   0.340E-01    0.239E-01
RMM:   2    -0.116029853384E+04   -0.50583E-03   -0.34135E-03  6108   0.740E-02    0.265E-01
RMM:   3    -0.116029872190E+04   -0.18805E-03   -0.17725E-04  3901   0.260E-02    0.168E-01
RMM:   4    -0.116029935930E+04   -0.63740E-03   -0.21774E-04  4078   0.181E-02    0.253E-01
RMM:   5    -0.116029855582E+04    0.80347E-03   -0.23779E-04  3994   0.230E-02    0.203E-01
RMM:   6    -0.116029838945E+04    0.16638E-03   -0.46649E-04  4450   0.233E-02    0.196E-01
RMM:   7    -0.116029835023E+04    0.39218E-04   -0.60304E-05  3510   0.119E-02    0.194E-01
RMM:   8    -0.116029861059E+04   -0.26036E-03   -0.10415E-04  3467   0.133E-02    0.192E-01
RMM:   9    -0.116029883334E+04   -0.22275E-03   -0.45321E-05  3116   0.708E-03    0.199E-01
RMM:  10    -0.116029790741E+04    0.92594E-03   -0.76697E-04  4922   0.342E-02    0.132E-01
RMM:  11    -0.116029765780E+04    0.24960E-03   -0.32341E-04  4246   0.201E-02    0.125E-01
RMM:  12    -0.116029758250E+04    0.75303E-04   -0.77384E-05  3473   0.111E-02
   3 F= -.11602976E+04 E0= -.11602936E+04  d E =0.471693E-03  mag=     8.0222
       N       E                     dE             d eps       ncg     rms          rms(c)
DAV:   1    -0.116029786835E+04   -0.21054E-03   -0.47974E-02  6168   0.255E-01    0.913E-02
RMM:   2    -0.116029794487E+04   -0.76524E-04   -0.17818E-03  6052   0.542E-02    0.181E-01
RMM:   3    -0.116029793616E+04    0.87088E-05   -0.12763E-04  3611   0.196E-02    0.700E-02
RMM:   4    -0.116029792862E+04    0.75433E-05   -0.48255E-05  3335   0.834E-03    0.355E-02
RMM:   5    -0.116029794526E+04   -0.16644E-04   -0.20709E-05  3115   0.572E-03    0.286E-02
RMM:   6    -0.116029798753E+04   -0.42273E-04   -0.12428E-05  3010   0.458E-03    0.314E-02
RMM:   7    -0.116029800097E+04   -0.13435E-04   -0.32891E-06  2184   0.308E-03    0.326E-02
RMM:   8    -0.116029794410E+04    0.56867E-04   -0.99164E-06  2923   0.494E-03
   4 F= -.11602979E+04 E0= -.11602938E+04  d E =-.361601E-03  mag=     8.0224
       N       E                     dE             d eps       ncg     rms          rms(c)
DAV:   1    -0.116029818112E+04   -0.18015E-03   -0.17028E-01  6320   0.482E-01    0.938E-02
RMM:   2    -0.116029857362E+04   -0.39250E-03   -0.42523E-03  6135   0.820E-02    0.620E-02
RMM:   3    -0.116029858184E+04   -0.82180E-05   -0.19121E-04  3774   0.296E-02    0.427E-02
RMM:   4    -0.116029860469E+04   -0.22854E-04   -0.59137E-05  3507   0.105E-02    0.370E-02
RMM:   5    -0.116029864781E+04   -0.43117E-04   -0.24618E-05  3404   0.707E-03    0.354E-02
RMM:   6    -0.116029867390E+04   -0.26089E-04   -0.10352E-05  3152   0.478E-03    0.341E-02
RMM:   7    -0.116029860653E+04    0.67369E-04   -0.18156E-05  3194   0.661E-03    0.261E-02
RMM:   8    -0.116029860181E+04    0.47171E-05   -0.73338E-06  2523   0.359E-03
   5 F= -.11602986E+04 E0= -.11602945E+04  d E =-.657710E-03  mag=     8.0223
       N       E                     dE             d eps       ncg     rms          rms(c)
DAV:   1    -0.116029882522E+04   -0.21869E-03   -0.98544E-02  6224   0.365E-01    0.774E-02
RMM:   2    -0.116029907667E+04   -0.25145E-03   -0.24903E-03  6202   0.622E-02    0.548E-02
RMM:   3    -0.116029909535E+04   -0.18675E-04   -0.10461E-04  3550   0.215E-02    0.420E-02
RMM:   4    -0.116029913113E+04   -0.35786E-04   -0.37434E-05  3441   0.841E-03    0.336E-02
RMM:   5    -0.116029919764E+04   -0.66509E-04   -0.24009E-05  3294   0.633E-03    0.347E-02
RMM:   6    -0.116029922723E+04   -0.29592E-04   -0.10546E-05  2927   0.429E-03    0.362E-02
RMM:   7    -0.116029916900E+04    0.58235E-04   -0.11170E-05  2952   0.525E-03    0.322E-02
RMM:   8    -0.116029910872E+04    0.60271E-04   -0.23225E-05  3161   0.629E-03
   6 F= -.11602991E+04 E0= -.11602950E+04  d E =-.506912E-03  mag=     8.0222
       N       E                     dE             d eps       ncg     rms          rms(c)
DAV:   1    -0.116029930947E+04   -0.14047E-03   -0.87306E-02  6176   0.342E-01    0.808E-02
RMM:   2    -0.116029956915E+04   -0.25968E-03   -0.21583E-03  6119   0.580E-02    0.583E-02
RMM:   3    -0.116029964646E+04   -0.77308E-04   -0.10391E-04  3545   0.220E-02    0.560E-02
RMM:   4    -0.116029971135E+04   -0.64891E-04   -0.33710E-05  3391   0.756E-03    0.613E-02
RMM:   5    -0.116029960160E+04    0.10975E-03   -0.23023E-05  3264   0.817E-03    0.517E-02
RMM:   6    -0.116029955946E+04    0.42137E-04   -0.28539E-05  3081   0.650E-03    0.385E-02
RMM:   7    -0.116029960031E+04   -0.40845E-04   -0.20177E-05  2998   0.590E-03    0.518E-02
RMM:   8    -0.116029959417E+04    0.61415E-05   -0.40656E-06  2501   0.380E-03
   7 F= -.11602996E+04 E0= -.11602955E+04  d E =-.485443E-03  mag=     8.0223
       N       E                     dE             d eps       ncg     rms          rms(c)
DAV:   1    -0.116029977188E+04   -0.17157E-03   -0.61134E-02  6144   0.286E-01    0.855E-02
RMM:   2    -0.116029998421E+04   -0.21233E-03   -0.14799E-03  6053   0.482E-02    0.628E-02
RMM:   3    -0.116030005518E+04   -0.70964E-04   -0.84148E-05  3513   0.189E-02    0.659E-02
RMM:   4    -0.116030008529E+04   -0.30118E-04   -0.24843E-05  3319   0.609E-03    0.617E-02
RMM:   5    -0.116030020963E+04   -0.12434E-03   -0.21065E-05  3101   0.623E-03    0.800E-02
RMM:   6    -0.116030004460E+04    0.16503E-03   -0.55453E-05  3167   0.106E-02    0.553E-02
RMM:   7    -0.116030004091E+04    0.36910E-05   -0.27550E-05  2996   0.670E-03    0.634E-02
RMM:   8    -0.116030001326E+04    0.27651E-04   -0.10101E-05  2722   0.539E-03
   8 F= -.11603000E+04 E0= -.11602959E+04  d E =-.419094E-03  mag=     8.0223
       N       E                     dE             d eps       ncg     rms          rms(c)
DAV:   1    -0.116030012419E+04   -0.83282E-04   -0.28042E-02  6144   0.192E-01    0.682E-02
RMM:   2    -0.116030028369E+04   -0.15950E-03   -0.75998E-04  5529   0.352E-02    0.926E-02
RMM:   3    -0.116030030646E+04   -0.22766E-04   -0.35733E-05  3324   0.121E-02    0.737E-02
RMM:   4    -0.116030042818E+04   -0.12172E-03   -0.27639E-05  3287   0.724E-03    0.888E-02
RMM:   5    -0.116030031021E+04    0.11797E-03   -0.24983E-05  3030   0.806E-03    0.733E-02
RMM:   6    -0.116030024832E+04    0.61893E-04   -0.30374E-05  2937   0.642E-03    0.714E-02
RMM:   7    -0.116030024937E+04   -0.10531E-05   -0.42524E-06  2324   0.367E-03    0.742E-02
RMM:   8    -0.116030028924E+04   -0.39871E-04   -0.38446E-06  1952   0.311E-03
   9 F= -.11603003E+04 E0= -.11602962E+04  d E =-.275982E-03  mag=     8.0223
       N       E                     dE             d eps       ncg     rms          rms(c)
DAV:   1    -0.116030049327E+04   -0.24390E-03   -0.28796E-02  6080   0.195E-01    0.975E-02
RMM:   2    -0.116030071837E+04   -0.22510E-03   -0.74829E-04  5492   0.348E-02    0.930E-02
RMM:   3    -0.116030086969E+04   -0.15132E-03   -0.56822E-05  3435   0.142E-02    0.872E-02
RMM:   4    -0.116030111655E+04   -0.24686E-03   -0.70146E-05  3460   0.997E-03    0.115E-01
RMM:   5    -0.116030057543E+04    0.54112E-03   -0.38136E-04  4211   0.257E-02    0.807E-02
RMM:   6    -0.116030059706E+04   -0.21635E-04   -0.42560E-05  3040   0.853E-03    0.107E-01
RMM:   7    -0.116030056169E+04    0.35376E-04   -0.11656E-05  2855   0.602E-03    0.981E-02
RMM:   8    -0.116030047892E+04    0.82764E-04   -0.13703E-05  2652   0.464E-03
  10 F= -.11603005E+04 E0= -.11602964E+04  d E =-.189679E-03  mag=     8.0220
       N       E                     dE             d eps       ncg     rms          rms(c)
DAV:   1    -0.116030044901E+04    0.11267E-03   -0.14591E-01  6288   0.441E-01    0.129E-01
RMM:   2    -0.116030085659E+04   -0.40757E-03   -0.37591E-03  6189   0.770E-02    0.172E-01
RMM:   3    -0.116030088173E+04   -0.25145E-04   -0.16605E-04  3725   0.267E-02    0.113E-01
RMM:   4    -0.116030096087E+04   -0.79137E-04   -0.48476E-05  3438   0.101E-02    0.129E-01
RMM:   5    -0.116030121911E+04   -0.25824E-03   -0.11652E-04  3652   0.126E-02    0.118E-01
RMM:   6    -0.116030121831E+04    0.79871E-06   -0.18093E-05  3150   0.661E-03    0.107E-01
RMM:   7    -0.116030119686E+04    0.21447E-04   -0.95570E-06  2941   0.407E-03    0.122E-01
RMM:   8    -0.116030118202E+04    0.14843E-04   -0.40349E-06  2322   0.328E-03
  11 F= -.11603012E+04 E0= -.11602970E+04  d E =-.703093E-03  mag=     8.0225
       N       E                     dE             d eps       ncg     rms          rms(c)
DAV:   1    -0.116030116581E+04    0.31048E-04   -0.21529E-01  6224   0.532E-01    0.134E-01
RMM:   2    -0.116030192274E+04   -0.75693E-03   -0.51975E-03  6160   0.902E-02    0.133E-01
RMM:   3    -0.116030212277E+04   -0.20003E-03   -0.31796E-04  4243   0.337E-02    0.125E-01
RMM:   4    -0.116030231679E+04   -0.19402E-03   -0.86418E-05  3593   0.119E-02    0.132E-01
RMM:   5    -0.116030201304E+04    0.30375E-03   -0.87061E-05  3489   0.138E-02    0.102E-01
RMM:   6    -0.116030176113E+04    0.25191E-03   -0.23439E-04  3877   0.159E-02    0.110E-01
RMM:   7    -0.116030176903E+04   -0.78922E-05   -0.26057E-05  3122   0.734E-03    0.115E-01
RMM:   8    -0.116030180948E+04   -0.40457E-04   -0.18528E-05  2994   0.621E-03
  12 F= -.11603018E+04 E0= -.11602978E+04  d E =-.627468E-03  mag=     8.0225
