       N       E                     dE             d eps       ncg     rms          rms(c)
DAV:   1    -0.116222478937E+04   -0.11622E+04   -0.34543E-06  3640   0.300E-03    0.320E-03
RMM:   2    -0.116222478943E+04   -0.62544E-07   -0.62234E-07  1515   0.199E-03    0.275E-03
RMM:   3    -0.116222478945E+04   -0.17055E-07   -0.75058E-08   711   0.172E-03    0.841E-04
RMM:   4    -0.116222478949E+04   -0.38519E-07   -0.50986E-08   603   0.171E-03    0.651E-04
RMM:   5    -0.116222478952E+04   -0.27081E-07   -0.40591E-08   480   0.170E-03    0.561E-04
RMM:   6    -0.116222478955E+04   -0.39479E-07   -0.64895E-08   451   0.173E-03    0.410E-04
RMM:   7    -0.116222478958E+04   -0.24229E-07   -0.62637E-08   415   0.173E-03    0.406E-04
RMM:   8    -0.116222478961E+04   -0.32698E-07   -0.85160E-08   459   0.175E-03
   1 F= -.11622248E+04 E0= -.11622248E+04  d E =-.116222E+04  mag=     6.0000
       N       E                     dE             d eps       ncg     rms          rms(c)
DAV:   1    -0.116222335385E+04    0.14357E-02   -0.20779E-01  6304   0.533E-01    0.116E-01
RMM:   2    -0.116222379539E+04   -0.44154E-03   -0.53318E-03  6237   0.927E-02    0.758E-02
RMM:   3    -0.116222378031E+04    0.15077E-04   -0.23862E-04  4031   0.306E-02    0.465E-02
RMM:   4    -0.116222375965E+04    0.20667E-04   -0.86340E-05  3538   0.119E-02    0.253E-02
RMM:   5    -0.116222375782E+04    0.18285E-05   -0.26805E-05  3413   0.754E-03    0.136E-02
RMM:   6    -0.116222375890E+04   -0.10841E-05   -0.10563E-05  3296   0.498E-03    0.859E-03
RMM:   7    -0.116222375949E+04   -0.59081E-06   -0.49616E-06  2710   0.350E-03    0.564E-03
RMM:   8    -0.116222375992E+04   -0.43034E-06   -0.30605E-06  2355   0.292E-03
   2 F= -.11622238E+04 E0= -.11622238E+04  d E =0.102969E-02  mag=     6.0000
       N       E                     dE             d eps       ncg     rms          rms(c)
DAV:   1    -0.116222347778E+04    0.28171E-03   -0.27489E-02  6096   0.193E-01    0.451E-02
RMM:   2    -0.116222353058E+04   -0.52794E-04   -0.78454E-04  5974   0.360E-02    0.359E-02
RMM:   3    -0.116222352526E+04    0.53123E-05   -0.35347E-05  3205   0.119E-02    0.224E-02
RMM:   4    -0.116222352031E+04    0.49512E-05   -0.19747E-05  3122   0.551E-03    0.131E-02
RMM:   5    -0.116222351956E+04    0.75249E-06   -0.57063E-06  2611   0.349E-03    0.466E-03
RMM:   6    -0.116222351972E+04   -0.15633E-06   -0.16845E-06  1591   0.239E-03    0.342E-03
RMM:   7    -0.116222351979E+04   -0.75030E-07   -0.69519E-07  1155   0.217E-03    0.214E-03
RMM:   8    -0.116222351983E+04   -0.42957E-07   -0.28163E-07   910   0.195E-03
   3 F= -.11622235E+04 E0= -.11622235E+04  d E =0.240088E-03  mag=     6.0000
       N       E                     dE             d eps       ncg     rms          rms(c)
DAV:   1    -0.116222345595E+04    0.63838E-04   -0.86177E-04  6024   0.345E-02    0.715E-03
RMM:   2    -0.116222345795E+04   -0.19950E-05   -0.21881E-05  3157   0.642E-03    0.404E-03
RMM:   3    -0.116222345823E+04   -0.28167E-06   -0.18573E-06  1870   0.293E-03    0.256E-03
RMM:   4    -0.116222345822E+04    0.94587E-08   -0.19672E-07   656   0.182E-03    0.170E-03
RMM:   5    -0.116222345822E+04    0.22410E-08   -0.12928E-07   597   0.181E-03    0.578E-04
RMM:   6    -0.116222345823E+04   -0.13300E-07   -0.58253E-08   473   0.178E-03    0.324E-04
RMM:   7    -0.116222345824E+04   -0.67521E-08   -0.22190E-08   415   0.176E-03    0.266E-04
RMM:   8    -0.116222345825E+04   -0.14959E-07   -0.54123E-08   416   0.177E-03
   4 F= -.11622235E+04 E0= -.11622235E+04  d E =0.615812E-04  mag=     6.0000
       N       E                     dE             d eps       ncg     rms          rms(c)
DAV:   1    -0.116222354431E+04   -0.86075E-04   -0.73119E-03  6008   0.947E-02    0.224E-02
RMM:   2    -0.116222355282E+04   -0.85101E-05   -0.16635E-04  3273   0.171E-02    0.165E-02
RMM:   3    -0.116222355259E+04    0.23321E-06   -0.15849E-05  2951   0.709E-03    0.966E-03
RMM:   4    -0.116222355131E+04    0.12812E-05   -0.51934E-06  2587   0.335E-03    0.728E-03
RMM:   5    -0.116222355082E+04    0.48628E-06   -0.13259E-06  1821   0.243E-03    0.260E-03
RMM:   6    -0.116222355081E+04    0.16167E-07   -0.40047E-07   986   0.194E-03    0.108E-03
RMM:   7    -0.116222355082E+04   -0.12646E-07   -0.17820E-07   803   0.189E-03    0.634E-04
RMM:   8    -0.116222355082E+04    0.12951E-08   -0.97697E-09   527   0.181E-03
   5 F= -.11622236E+04 E0= -.11622236E+04  d E =-.925647E-04  mag=     6.0000
       N       E                     dE             d eps       ncg     rms          rms(c)
DAV:   1    -0.116222354120E+04    0.96177E-05   -0.44596E-02  6016   0.242E-01    0.527E-02
RMM:   2    -0.116222362808E+04   -0.86876E-04   -0.11546E-03  5978   0.434E-02    0.393E-02
RMM:   3    -0.116222362178E+04    0.62993E-05   -0.47587E-05  3117   0.143E-02    0.251E-02
RMM:   4    -0.116222361649E+04    0.52929E-05   -0.24268E-05  3054   0.615E-03    0.124E-02
RMM:   5    -0.116222361613E+04    0.35157E-06   -0.54408E-06  2581   0.363E-03    0.584E-03
RMM:   6    -0.116222361632E+04   -0.18186E-06   -0.17680E-06  1631   0.233E-03    0.318E-03
RMM:   7    -0.116222361638E+04   -0.67492E-07   -0.65307E-07  1115   0.220E-03    0.193E-03
RMM:   8    -0.116222361641E+04   -0.25146E-07   -0.18829E-07   849   0.190E-03
   6 F= -.11622236E+04 E0= -.11622236E+04  d E =-.655899E-04  mag=     6.0000
       N       E                     dE             d eps       ncg     rms          rms(c)
DAV:   1    -0.116222351780E+04    0.98587E-04   -0.49641E-02  6080   0.259E-01    0.597E-02
RMM:   2    -0.116222360684E+04   -0.89041E-04   -0.12818E-03  6065   0.454E-02    0.408E-02
RMM:   3    -0.116222359708E+04    0.97572E-05   -0.54860E-05  3379   0.154E-02    0.258E-02
RMM:   4    -0.116222359048E+04    0.66020E-05   -0.33014E-05  3354   0.695E-03    0.125E-02
RMM:   5    -0.116222359059E+04   -0.11397E-06   -0.73145E-06  3048   0.413E-03    0.678E-03
RMM:   6    -0.116222359089E+04   -0.29987E-06   -0.29393E-06  2346   0.265E-03    0.427E-03
RMM:   7    -0.116222359101E+04   -0.11612E-06   -0.11337E-06  1485   0.240E-03    0.263E-03
RMM:   8    -0.116222359105E+04   -0.37733E-07   -0.25850E-07  1011   0.199E-03
   7 F= -.11622236E+04 E0= -.11622236E+04  d E =0.253625E-04  mag=     6.0000
       N       E                     dE             d eps       ncg     rms          rms(c)
DAV:   1    -0.116222349457E+04    0.96442E-04   -0.10790E-02  6032   0.123E-01    0.293E-02
RMM:   2    -0.116222351168E+04   -0.17116E-04   -0.26195E-04  3870   0.219E-02    0.227E-02
RMM:   3    -0.116222351240E+04   -0.71344E-06   -0.23216E-05  3171   0.910E-03    0.130E-02
RMM:   4    -0.116222351153E+04    0.86971E-06   -0.83075E-06  3042   0.405E-03    0.965E-03
RMM:   5    -0.116222351103E+04    0.49798E-06   -0.28014E-06  2318   0.295E-03    0.276E-03
RMM:   6    -0.116222351109E+04   -0.66648E-07   -0.79940E-07  1272   0.208E-03    0.125E-03
RMM:   7    -0.116222351113E+04   -0.34968E-07   -0.36704E-07  1087   0.202E-03    0.756E-04
RMM:   8    -0.116222351114E+04   -0.10943E-07   -0.87786E-08   681   0.185E-03
   8 F= -.11622235E+04 E0= -.11622235E+04  d E =0.799054E-04  mag=     6.0000
       N       E                     dE             d eps       ncg     rms          rms(c)
DAV:   1    -0.116222339863E+04    0.11250E-03   -0.45127E-03  6080   0.799E-02    0.196E-02
RMM:   2    -0.116222340586E+04   -0.72308E-05   -0.11014E-04  3284   0.144E-02    0.132E-02
RMM:   3    -0.116222340648E+04   -0.61491E-06   -0.11330E-05  3118   0.623E-03    0.832E-03
RMM:   4    -0.116222340615E+04    0.32365E-06   -0.31560E-06  2374   0.285E-03    0.541E-03
RMM:   5    -0.116222340606E+04    0.94864E-07   -0.12845E-06  1781   0.250E-03    0.167E-03
RMM:   6    -0.116222340609E+04   -0.30894E-07   -0.26391E-07   759   0.181E-03    0.632E-04
RMM:   7    -0.116222340610E+04   -0.72760E-08   -0.85022E-08   606   0.176E-03    0.386E-04
RMM:   8    -0.116222340610E+04   -0.46566E-09   -0.65681E-09   484   0.173E-03
   9 F= -.11622234E+04 E0= -.11622234E+04  d E =0.105042E-03  mag=     6.0000
       N       E                     dE             d eps       ncg     rms          rms(c)
DAV:   1    -0.116222331412E+04    0.91982E-04   -0.48484E-03  6032   0.835E-02    0.180E-02
RMM:   2    -0.116222332314E+04   -0.90207E-05   -0.11706E-04  3242   0.148E-02    0.123E-02
RMM:   3    -0.116222332418E+04   -0.10484E-05   -0.11429E-05  3087   0.635E-03    0.773E-03
RMM:   4    -0.116222332406E+04    0.12270E-06   -0.26751E-06  2246   0.284E-03    0.514E-03
RMM:   5    -0.116222332399E+04    0.70111E-07   -0.12073E-06  1686   0.245E-03    0.167E-03
RMM:   6    -0.116222332402E+04   -0.27081E-07   -0.23121E-07   686   0.184E-03    0.610E-04
RMM:   7    -0.116222332402E+04   -0.51805E-08   -0.63320E-08   526   0.180E-03    0.376E-04
RMM:   8    -0.116222332402E+04    0.52387E-09   -0.75472E-09   482   0.178E-03
  10 F= -.11622233E+04 E0= -.11622233E+04  d E =0.820748E-04  mag=     6.0000
       N       E                     dE             d eps       ncg     rms          rms(c)
DAV:   1    -0.116222144475E+04    0.18793E-02   -0.62088E-01  6240   0.888E-01    0.178E-01
RMM:   2    -0.116222273659E+04   -0.12918E-02   -0.14900E-02  6199   0.152E-01    0.112E-01
RMM:   3    -0.116222269650E+04    0.40088E-04   -0.74740E-04  5378   0.489E-02    0.715E-02
RMM:   4    -0.116222263141E+04    0.65086E-04   -0.19638E-04  3877   0.173E-02    0.346E-02
RMM:   5    -0.116222262974E+04    0.16745E-05   -0.53555E-05  3498   0.112E-02    0.142E-02
RMM:   6    -0.116222263153E+04   -0.17948E-05   -0.17881E-05  3361   0.645E-03    0.109E-02
RMM:   7    -0.116222263234E+04   -0.80989E-06   -0.83661E-06  3042   0.446E-03    0.642E-03
RMM:   8    -0.116222263285E+04   -0.50882E-06   -0.52570E-06  2831   0.364E-03
  11 F= -.11622226E+04 E0= -.11622226E+04  d E =0.691173E-03  mag=     6.0000
       N       E                     dE             d eps       ncg     rms          rms(c)
DAV:   1    -0.116222215050E+04    0.48185E-03   -0.18990E-02  6080   0.165E-01    0.432E-02
RMM:   2    -0.116222218673E+04   -0.36231E-04   -0.51888E-04  5194   0.302E-02    0.288E-02
RMM:   3    -0.116222218661E+04    0.12052E-06   -0.33142E-05  3272   0.116E-02    0.170E-02
RMM:   4    -0.116222218511E+04    0.14942E-05   -0.12775E-05  3220   0.491E-03    0.117E-02
RMM:   5    -0.116222218456E+04    0.55686E-06   -0.44424E-06  2550   0.337E-03    0.486E-03
RMM:   6    -0.116222218478E+04   -0.22052E-06   -0.18280E-06  1658   0.240E-03    0.192E-03
RMM:   7    -0.116222218488E+04   -0.10013E-06   -0.73341E-07  1310   0.220E-03    0.130E-03
RMM:   8    -0.116222218494E+04   -0.63985E-07   -0.32813E-07   905   0.195E-03
  12 F= -.11622222E+04 E0= -.11622222E+04  d E =0.447910E-03  mag=     6.0000
       N       E                     dE             d eps       ncg     rms          rms(c)
DAV:   1    -0.116222138293E+04    0.80195E-03   -0.47543E-02  6248   0.262E-01    0.615E-02
RMM:   2    -0.116222149192E+04   -0.10899E-03   -0.12874E-03  6120   0.457E-02    0.341E-02
RMM:   3    -0.116222149155E+04    0.37650E-06   -0.55454E-05  3370   0.162E-02    0.214E-02
RMM:   4    -0.116222149002E+04    0.15219E-05   -0.22215E-05  3266   0.610E-03    0.112E-02
RMM:   5    -0.116222149043E+04   -0.40951E-06   -0.68782E-06  2779   0.390E-03    0.757E-03
RMM:   6    -0.116222149074E+04   -0.31038E-06   -0.28324E-06  2005   0.277E-03    0.273E-03
RMM:   7    -0.116222149090E+04   -0.15981E-06   -0.12152E-06  1502   0.250E-03    0.171E-03
RMM:   8    -0.116222149100E+04   -0.98007E-07   -0.49556E-07  1037   0.211E-03
  13 F= -.11622215E+04 E0= -.11622215E+04  d E =0.693940E-03  mag=     6.0000
       N       E                     dE             d eps       ncg     rms          rms(c)
DAV:   1    -0.116222077840E+04    0.71251E-03   -0.46892E-02  6080   0.254E-01    0.521E-02
RMM:   2    -0.116222088294E+04   -0.10454E-03   -0.11738E-03  6099   0.437E-02    0.291E-02
RMM:   3    -0.116222088205E+04    0.88557E-06   -0.51414E-05  3323   0.151E-02    0.179E-02
RMM:   4    -0.116222088003E+04    0.20183E-05   -0.19387E-05  3241   0.564E-03    0.103E-02
RMM:   5    -0.116222087996E+04    0.73574E-07   -0.53001E-06  2577   0.351E-03    0.556E-03
RMM:   6    -0.116222088024E+04   -0.27429E-06   -0.24671E-06  1919   0.265E-03    0.270E-03
RMM:   7    -0.116222088036E+04   -0.12635E-06   -0.90954E-07  1345   0.230E-03    0.156E-03
RMM:   8    -0.116222088044E+04   -0.80108E-07   -0.30914E-07   883   0.201E-03
  14 F= -.11622209E+04 E0= -.11622209E+04  d E =0.610559E-03  mag=     6.0000
       N       E                     dE             d eps       ncg     rms          rms(c)
DAV:   1    -0.116221942058E+04    0.14598E-02   -0.13777E-01  6336   0.441E-01    0.934E-02
RMM:   2    -0.116221973068E+04   -0.31010E-03   -0.35271E-03  6317   0.752E-02    0.501E-02
RMM:   3    -0.116221972632E+04    0.43539E-05   -0.14103E-04  3585   0.244E-02    0.309E-02
RMM:   4    -0.116221972015E+04    0.61679E-05   -0.49906E-05  3426   0.915E-03    0.161E-02
RMM:   5    -0.116221972063E+04   -0.47892E-06   -0.16211E-05  3342   0.568E-03    0.618E-03
RMM:   6    -0.116221972146E+04   -0.82473E-06   -0.67591E-06  2876   0.398E-03    0.370E-03
RMM:   7    -0.116221972188E+04   -0.42716E-06   -0.31878E-06  2136   0.304E-03    0.263E-03
RMM:   8    -0.116221972218E+04   -0.29826E-06   -0.17892E-06  1727   0.254E-03
  15 F= -.11622197E+04 E0= -.11622197E+04  d E =0.115826E-02  mag=     6.0000
       N       E                     dE             d eps       ncg     rms          rms(c)
DAV:   1    -0.116221844864E+04    0.12732E-02   -0.12525E-01  6240   0.418E-01    0.831E-02
RMM:   2    -0.116221872730E+04   -0.27865E-03   -0.31529E-03  6327   0.711E-02    0.455E-02
RMM:   3    -0.116221872190E+04    0.53924E-05   -0.12594E-04  3537   0.231E-02    0.282E-02
RMM:   4    -0.116221871611E+04    0.57915E-05   -0.44125E-05  3401   0.864E-03    0.149E-02
RMM:   5    -0.116221871666E+04   -0.54856E-06   -0.13949E-05  3306   0.526E-03    0.518E-03
RMM:   6    -0.116221871738E+04   -0.71728E-06   -0.57129E-06  2761   0.372E-03    0.298E-03
RMM:   7    -0.116221871775E+04   -0.37267E-06   -0.25882E-06  1966   0.283E-03    0.207E-03
RMM:   8    -0.116221871801E+04   -0.25809E-06   -0.13811E-06  1582   0.245E-03
  16 F= -.11622187E+04 E0= -.11622187E+04  d E =0.100417E-02  mag=     6.0000
       N       E                     dE             d eps       ncg     rms          rms(c)
DAV:   1    -0.116221572838E+04    0.29894E-02   -0.45431E-01  6352   0.795E-01    0.159E-01
RMM:   2    -0.116221678126E+04   -0.10529E-02   -0.11226E-02  6340   0.134E-01    0.824E-02
RMM:   3    -0.116221678579E+04   -0.45243E-05   -0.50982E-04  4754   0.426E-02    0.507E-02
RMM:   4    -0.116221676557E+04    0.20216E-04   -0.10660E-04  3571   0.143E-02    0.270E-02
RMM:   5    -0.116221676567E+04   -0.98124E-07   -0.46938E-05  3464   0.975E-03    0.833E-03
RMM:   6    -0.116221676790E+04   -0.22300E-05   -0.17347E-05  3339   0.674E-03    0.541E-03
RMM:   7    -0.116221676919E+04   -0.12900E-05   -0.10538E-05  2998   0.455E-03    0.406E-03
RMM:   8    -0.116221677006E+04   -0.87530E-06   -0.60768E-06  2714   0.411E-03
  17 F= -.11622168E+04 E0= -.11622168E+04  d E =0.194795E-02  mag=     6.0000
       N       E                     dE             d eps       ncg     rms          rms(c)
DAV:   1    -0.116221529578E+04    0.14734E-02   -0.14779E-01  6240   0.453E-01    0.883E-02
RMM:   2    -0.116221563795E+04   -0.34217E-03   -0.36700E-03  6307   0.759E-02    0.458E-02
RMM:   3    -0.116221563492E+04    0.30316E-05   -0.13853E-04  3582   0.237E-02    0.280E-02
RMM:   4    -0.116221563048E+04    0.44395E-05   -0.45309E-05  3436   0.869E-03    0.154E-02
RMM:   5    -0.116221563122E+04   -0.74090E-06   -0.16532E-05  3347   0.573E-03    0.612E-03
RMM:   6    -0.116221563217E+04   -0.94883E-06   -0.70558E-06  2805   0.404E-03    0.354E-03
RMM:   7    -0.116221563268E+04   -0.50956E-06   -0.34965E-06  2209   0.315E-03    0.259E-03
RMM:   8    -0.116221563313E+04   -0.45433E-06   -0.22483E-06  1892   0.263E-03
  18 F= -.11622156E+04 E0= -.11622156E+04  d E =0.113693E-02  mag=     6.0000
       N       E                     dE             d eps       ncg     rms          rms(c)
DAV:   1    -0.116221446474E+04    0.11679E-02   -0.10471E-01  6240   0.380E-01    0.739E-02
RMM:   2    -0.116221470746E+04   -0.24272E-03   -0.25765E-03  6306   0.642E-02    0.380E-02
RMM:   3    -0.116221470662E+04    0.83521E-06   -0.10262E-04  3476   0.209E-02    0.231E-02
RMM:   4    -0.116221470375E+04    0.28735E-05   -0.33168E-05  3376   0.753E-03    0.128E-02
RMM:   5    -0.116221470414E+04   -0.39066E-06   -0.11545E-05  3193   0.478E-03    0.543E-03
RMM:   6    -0.116221470477E+04   -0.62669E-06   -0.45710E-06  2499   0.343E-03    0.314E-03
RMM:   7    -0.116221470508E+04   -0.31191E-06   -0.19142E-06  1757   0.263E-03    0.208E-03
RMM:   8    -0.116221470537E+04   -0.28705E-06   -0.10805E-06  1421   0.231E-03
  19 F= -.11622147E+04 E0= -.11622147E+04  d E =0.927768E-03  mag=     6.0000
       N       E                     dE             d eps       ncg     rms          rms(c)
DAV:   1    -0.116221384915E+04    0.85593E-03   -0.61804E-02  6128   0.291E-01    0.574E-02
RMM:   2    -0.116221399268E+04   -0.14353E-03   -0.15101E-03  6127   0.494E-02    0.293E-02
RMM:   3    -0.116221399351E+04   -0.83169E-06   -0.64767E-05  3382   0.172E-02    0.179E-02
RMM:   4    -0.116221399245E+04    0.10632E-05   -0.22129E-05  3281   0.598E-03    0.107E-02
RMM:   5    -0.116221399253E+04   -0.83950E-07   -0.67348E-06  2663   0.386E-03    0.643E-03
RMM:   6    -0.116221399297E+04   -0.43935E-06   -0.33541E-06  2257   0.285E-03    0.278E-03
RMM:   7    -0.116221399317E+04   -0.19402E-06   -0.10680E-06  1429   0.238E-03    0.171E-03
RMM:   8    -0.116221399334E+04   -0.17461E-06   -0.43567E-07   986   0.202E-03
  20 F= -.11622140E+04 E0= -.11622140E+04  d E =0.712024E-03  mag=     6.0000
       N       E                     dE             d eps       ncg     rms          rms(c)
DAV:   1    -0.116221339787E+04    0.59530E-03   -0.33899E-02  6080   0.216E-01    0.434E-02
RMM:   2    -0.116221347706E+04   -0.79187E-04   -0.83657E-04  5967   0.370E-02    0.223E-02
RMM:   3    -0.116221347771E+04   -0.65468E-06   -0.37486E-05  3267   0.130E-02    0.136E-02
RMM:   4    -0.116221347711E+04    0.60350E-06   -0.13012E-05  3025   0.465E-03    0.842E-03
RMM:   5    -0.116221347708E+04    0.27401E-07   -0.35438E-06  2228   0.302E-03    0.530E-03
RMM:   6    -0.116221347728E+04   -0.20360E-06   -0.15784E-06  1483   0.238E-03    0.184E-03
RMM:   7    -0.116221347740E+04   -0.11704E-06   -0.63463E-07  1130   0.219E-03    0.124E-03
RMM:   8    -0.116221347750E+04   -0.97963E-07   -0.25526E-07   832   0.199E-03
  21 F= -.11622135E+04 E0= -.11622135E+04  d E =0.515843E-03  mag=     6.0000
       N       E                     dE             d eps       ncg     rms          rms(c)
DAV:   1    -0.116221251187E+04    0.96554E-03   -0.76978E-02  6080   0.324E-01    0.644E-02
RMM:   2    -0.116221269102E+04   -0.17915E-03   -0.18811E-03  6195   0.550E-02    0.334E-02
RMM:   3    -0.116221269153E+04   -0.51134E-06   -0.77445E-05  3381   0.187E-02    0.201E-02
RMM:   4    -0.116221268945E+04    0.20781E-05   -0.26055E-05  3288   0.650E-03    0.117E-02
RMM:   5    -0.116221268950E+04   -0.49826E-07   -0.79525E-06  2867   0.407E-03    0.665E-03
RMM:   6    -0.116221268993E+04   -0.43072E-06   -0.33805E-06  2260   0.296E-03    0.291E-03
RMM:   7    -0.116221269012E+04   -0.19226E-06   -0.10990E-06  1439   0.240E-03    0.175E-03
RMM:   8    -0.116221269027E+04   -0.14590E-06   -0.45227E-07   962   0.205E-03
  22 F= -.11622127E+04 E0= -.11622127E+04  d E =0.787229E-03  mag=     6.0000
       N       E                     dE             d eps       ncg     rms          rms(c)
DAV:   1    -0.116221155416E+04    0.11360E-02   -0.96775E-02  6080   0.364E-01    0.724E-02
RMM:   2    -0.116221178218E+04   -0.22803E-03   -0.23729E-03  6282   0.618E-02    0.369E-02
RMM:   3    -0.116221178257E+04   -0.38886E-06   -0.93929E-05  3428   0.201E-02    0.220E-02
RMM:   4    -0.116221177992E+04    0.26489E-05   -0.30273E-05  3321   0.715E-03    0.125E-02
RMM:   5    -0.116221178004E+04   -0.12039E-06   -0.10340E-05  3014   0.455E-03    0.705E-03
RMM:   6    -0.116221178058E+04   -0.53232E-06   -0.41452E-06  2359   0.325E-03    0.308E-03
RMM:   7    -0.116221178082E+04   -0.24779E-06   -0.15808E-06  1605   0.254E-03    0.203E-03
RMM:   8    -0.116221178101E+04   -0.18615E-06   -0.71292E-07  1126   0.219E-03
  23 F= -.11622118E+04 E0= -.11622118E+04  d E =0.909259E-03  mag=     6.0000
