       N       E                     dE             d eps       ncg     rms          rms(c)
DAV:   1    -0.116306150161E+04   -0.11631E+04   -0.12194E-05  4128   0.911E-03    0.943E-03
RMM:   2    -0.116306151194E+04   -0.10324E-04   -0.16659E-05  3018   0.545E-03    0.113E-02
RMM:   3    -0.116306151516E+04   -0.32272E-05   -0.43821E-06  1993   0.258E-03    0.877E-03
RMM:   4    -0.116306151574E+04   -0.57284E-06   -0.15430E-06  1652   0.258E-03    0.862E-03
RMM:   5    -0.116306151844E+04   -0.27086E-05   -0.10098E-06  1141   0.196E-03    0.866E-03
RMM:   6    -0.116306153476E+04   -0.16316E-04   -0.10604E-05  2425   0.438E-03    0.113E-02
RMM:   7    -0.116306154498E+04   -0.10214E-04   -0.76086E-06  1754   0.300E-03    0.120E-02
RMM:   8    -0.116306155730E+04   -0.12323E-04   -0.97514E-06  2255   0.335E-03
   1 F= -.11630616E+04 E0= -.11630605E+04  d E =-.116306E+04  mag=     5.9965
       N       E                     dE             d eps       ncg     rms          rms(c)
DAV:   1    -0.116306472198E+04   -0.31770E-02   -0.30225E+00  6416   0.200E+00    0.539E-01
RMM:   2    -0.116306985282E+04   -0.51308E-02   -0.92188E-02  6148   0.386E-01    0.573E-01
RMM:   3    -0.116306911840E+04    0.73442E-03   -0.43772E-03  6529   0.105E-01    0.386E-01
RMM:   4    -0.116306833763E+04    0.78078E-03   -0.23582E-03  6115   0.502E-02    0.226E-01
RMM:   5    -0.116306801415E+04    0.32348E-03   -0.88684E-04  5489   0.361E-02    0.609E-02
RMM:   6    -0.116306802135E+04   -0.71994E-05   -0.96557E-05  4060   0.136E-02    0.463E-02
RMM:   7    -0.116306803234E+04   -0.10996E-04   -0.48218E-05  3755   0.912E-03    0.294E-02
RMM:   8    -0.116306805168E+04   -0.19333E-04   -0.41661E-05  3642   0.901E-03
   2 F= -.11630681E+04 E0= -.11630665E+04  d E =-.649438E-02  mag=     5.9941
       N       E                     dE             d eps       ncg     rms          rms(c)
DAV:   1    -0.116307362362E+04   -0.55913E-02   -0.74886E-01  6432   0.100E+00    0.260E-01
RMM:   2    -0.116307439303E+04   -0.76941E-03   -0.24537E-02  6136   0.202E-01    0.273E-01
RMM:   3    -0.116307416196E+04    0.23106E-03   -0.12465E-03  6225   0.586E-02    0.182E-01
RMM:   4    -0.116307389692E+04    0.26504E-03   -0.75193E-04  5333   0.287E-02    0.107E-01
RMM:   5    -0.116307380661E+04    0.90315E-04   -0.22335E-04  4421   0.217E-02    0.373E-02
RMM:   6    -0.116307381770E+04   -0.11091E-04   -0.53031E-05  3628   0.102E-02    0.328E-02
RMM:   7    -0.116307382376E+04   -0.60584E-05   -0.20194E-05  3458   0.720E-03    0.264E-02
RMM:   8    -0.116307384178E+04   -0.18021E-04   -0.24674E-05  3548   0.669E-03
   3 F= -.11630738E+04 E0= -.11630722E+04  d E =-.579010E-02  mag=     5.9941
       N       E                     dE             d eps       ncg     rms          rms(c)
DAV:   1    -0.116307621331E+04   -0.23896E-02   -0.98342E-01  6344   0.114E+00    0.234E-01
RMM:   2    -0.116307856880E+04   -0.23555E-02   -0.25056E-02  6170   0.195E-01    0.167E-01
RMM:   3    -0.116307855848E+04    0.10320E-04   -0.12114E-03  5950   0.628E-02    0.107E-01
RMM:   4    -0.116307856003E+04   -0.15520E-05   -0.35508E-04  4697   0.218E-02    0.766E-02
RMM:   5    -0.116307857126E+04   -0.11224E-04   -0.10688E-04  3801   0.152E-02    0.258E-02
RMM:   6    -0.116307859416E+04   -0.22904E-04   -0.43225E-05  3520   0.943E-03    0.185E-02
RMM:   7    -0.116307860935E+04   -0.15183E-04   -0.22759E-05  3429   0.707E-03    0.156E-02
RMM:   8    -0.116307862890E+04   -0.19551E-04   -0.20156E-05  3385   0.628E-03
   4 F= -.11630786E+04 E0= -.11630769E+04  d E =-.478712E-02  mag=     5.9937
       N       E                     dE             d eps       ncg     rms          rms(c)
DAV:   1    -0.116308069037E+04   -0.20810E-02   -0.60160E-01  6272   0.889E-01    0.175E-01
RMM:   2    -0.116308210746E+04   -0.14171E-02   -0.15301E-02  6161   0.151E-01    0.134E-01
RMM:   3    -0.116308208154E+04    0.25915E-04   -0.74698E-04  5508   0.486E-02    0.842E-02
RMM:   4    -0.116308208148E+04    0.63170E-07   -0.21350E-04  4066   0.174E-02    0.595E-02
RMM:   5    -0.116308209385E+04   -0.12371E-04   -0.88411E-05  3746   0.131E-02    0.188E-02
RMM:   6    -0.116308210897E+04   -0.15114E-04   -0.30280E-05  3474   0.811E-03    0.157E-02
RMM:   7    -0.116308212004E+04   -0.11071E-04   -0.17394E-05  3378   0.592E-03    0.139E-02
RMM:   8    -0.116308213619E+04   -0.16155E-04   -0.16993E-05  3357   0.575E-03
   5 F= -.11630821E+04 E0= -.11630802E+04  d E =-.350729E-02  mag=     5.9931
       N       E                     dE             d eps       ncg     rms          rms(c)
DAV:   1    -0.116308143479E+04    0.68524E-03   -0.33815E+00  6336   0.210E+00    0.404E-01
RMM:   2    -0.116308961456E+04   -0.81798E-02   -0.84881E-02  6150   0.354E-01    0.297E-01
RMM:   3    -0.116308955042E+04    0.64144E-04   -0.40818E-03  6180   0.112E-01    0.186E-01
RMM:   4    -0.116308957130E+04   -0.20881E-04   -0.11900E-03  6650   0.375E-02    0.133E-01
RMM:   5    -0.116308960062E+04   -0.29323E-04   -0.49604E-04  5300   0.236E-02    0.380E-02
RMM:   6    -0.116308964810E+04   -0.47475E-04   -0.79287E-05  3722   0.140E-02    0.295E-02
RMM:   7    -0.116308969683E+04   -0.48732E-04   -0.58840E-05  3611   0.911E-03    0.231E-02
RMM:   8    -0.116308975926E+04   -0.62432E-04   -0.61848E-05  3596   0.108E-02
   6 F= -.11630898E+04 E0= -.11630875E+04  d E =-.762307E-02  mag=     5.9919
       N       E                     dE             d eps       ncg     rms          rms(c)
DAV:   1    -0.116308337005E+04    0.63268E-02   -0.61923E+00  6336   0.284E+00    0.542E-01
RMM:   2    -0.116309829767E+04   -0.14928E-01   -0.15505E-01  6151   0.477E-01    0.394E-01
RMM:   3    -0.116309820437E+04    0.93297E-04   -0.74600E-03  6227   0.152E-01    0.247E-01
RMM:   4    -0.116309824293E+04   -0.38556E-04   -0.22678E-03  7422   0.507E-02    0.176E-01
RMM:   5    -0.116309827874E+04   -0.35815E-04   -0.90361E-04  6166   0.287E-02    0.505E-02
RMM:   6    -0.116309835630E+04   -0.77556E-04   -0.12476E-04  3944   0.162E-02    0.393E-02
RMM:   7    -0.116309843629E+04   -0.79992E-04   -0.89950E-05  3751   0.108E-02    0.303E-02
RMM:   8    -0.116309853458E+04   -0.98286E-04   -0.94101E-05  3725   0.125E-02
   7 F= -.11630985E+04 E0= -.11630959E+04  d E =-.877532E-02  mag=     5.9911
       N       E                     dE             d eps       ncg     rms          rms(c)
DAV:   1    -0.116309577579E+04    0.26605E-02   -0.35131E+00  6344   0.214E+00    0.398E-01
RMM:   2    -0.116310411291E+04   -0.83371E-02   -0.87596E-02  6165   0.357E-01    0.289E-01
RMM:   3    -0.116310402910E+04    0.83816E-04   -0.42245E-03  6238   0.114E-01    0.183E-01
RMM:   4    -0.116310403688E+04   -0.77873E-05   -0.12597E-03  6739   0.382E-02    0.131E-01
RMM:   5    -0.116310404275E+04   -0.58617E-05   -0.50663E-04  5414   0.232E-02    0.365E-02
RMM:   6    -0.116310408357E+04   -0.40821E-04   -0.77546E-05  3707   0.137E-02    0.279E-02
RMM:   7    -0.116310413195E+04   -0.48380E-04   -0.62744E-05  3627   0.951E-03    0.209E-02
RMM:   8    -0.116310417856E+04   -0.46617E-04   -0.51853E-05  3579   0.996E-03
   8 F= -.11631042E+04 E0= -.11631014E+04  d E =-.564399E-02  mag=     5.9908
       N       E                     dE             d eps       ncg     rms          rms(c)
DAV:   1    -0.116310367606E+04    0.45588E-03   -0.17119E+00  6304   0.149E+00    0.269E-01
RMM:   2    -0.116310767964E+04   -0.40036E-02   -0.42169E-02  6168   0.247E-01    0.190E-01
RMM:   3    -0.116310764209E+04    0.37543E-04   -0.20436E-03  6076   0.803E-02    0.121E-01
RMM:   4    -0.116310763725E+04    0.48461E-05   -0.59543E-04  5702   0.267E-02    0.849E-02
RMM:   5    -0.116310763914E+04   -0.18903E-05   -0.20140E-04  4119   0.178E-02    0.248E-02
RMM:   6    -0.116310766271E+04   -0.23575E-04   -0.52047E-05  3559   0.110E-02    0.189E-02
RMM:   7    -0.116310768507E+04   -0.22361E-04   -0.35583E-05  3512   0.805E-03    0.162E-02
RMM:   8    -0.116310770684E+04   -0.21769E-04   -0.27527E-05  3469   0.746E-03
   9 F= -.11631077E+04 E0= -.11631049E+04  d E =-.352828E-02  mag=     5.9911
       N       E                     dE             d eps       ncg     rms          rms(c)
DAV:   1    -0.116310672256E+04    0.96252E-03   -0.17751E+00  6288   0.151E+00    0.273E-01
RMM:   2    -0.116311088441E+04   -0.41619E-02   -0.43779E-02  6159   0.252E-01    0.193E-01
RMM:   3    -0.116311085114E+04    0.33274E-04   -0.21305E-03  6078   0.825E-02    0.123E-01
RMM:   4    -0.116311084020E+04    0.10940E-04   -0.60894E-04  5726   0.270E-02    0.862E-02
RMM:   5    -0.116311083623E+04    0.39699E-05   -0.20323E-04  4130   0.178E-02    0.243E-02
RMM:   6    -0.116311085824E+04   -0.22013E-04   -0.51496E-05  3557   0.110E-02    0.183E-02
RMM:   7    -0.116311087812E+04   -0.19880E-04   -0.33761E-05  3492   0.788E-03    0.156E-02
RMM:   8    -0.116311089662E+04   -0.18504E-04   -0.25197E-05  3444   0.719E-03
  10 F= -.11631109E+04 E0= -.11631082E+04  d E =-.318978E-02  mag=     5.9915
       N       E                     dE             d eps       ncg     rms          rms(c)
DAV:   1    -0.116310962252E+04    0.12556E-02   -0.16564E+00  6320   0.146E+00    0.266E-01
RMM:   2    -0.116311349668E+04   -0.38742E-02   -0.40914E-02  6165   0.244E-01    0.187E-01
RMM:   3    -0.116311346489E+04    0.31795E-04   -0.20118E-03  6069   0.806E-02    0.119E-01
RMM:   4    -0.116311344991E+04    0.14975E-04   -0.57461E-04  5596   0.263E-02    0.827E-02
RMM:   5    -0.116311344238E+04    0.75365E-05   -0.18453E-04  4060   0.174E-02    0.230E-02
RMM:   6    -0.116311346147E+04   -0.19088E-04   -0.48614E-05  3549   0.107E-02    0.171E-02
RMM:   7    -0.116311347734E+04   -0.15875E-04   -0.30893E-05  3490   0.769E-03    0.149E-02
RMM:   8    -0.116311349202E+04   -0.14680E-04   -0.21911E-05  3427   0.677E-03
  11 F= -.11631135E+04 E0= -.11631109E+04  d E =-.259540E-02  mag=     5.9921
       N       E                     dE             d eps       ncg     rms          rms(c)
DAV:   1    -0.116311341666E+04    0.60680E-04   -0.81454E-01  6400   0.103E+00    0.180E-01
RMM:   2    -0.116311524988E+04   -0.18332E-02   -0.19878E-02  6176   0.170E-01    0.119E-01
RMM:   3    -0.116311522909E+04    0.20783E-04   -0.97754E-04  5579   0.574E-02    0.781E-02
RMM:   4    -0.116311521242E+04    0.16673E-04   -0.28169E-04  4354   0.195E-02    0.480E-02
RMM:   5    -0.116311521426E+04   -0.18407E-05   -0.72301E-05  3653   0.128E-02    0.161E-02
RMM:   6    -0.116311522338E+04   -0.91175E-05   -0.29054E-05  3454   0.776E-03    0.129E-02
RMM:   7    -0.116311523000E+04   -0.66215E-05   -0.16465E-05  3370   0.614E-03    0.102E-02
RMM:   8    -0.116311523787E+04   -0.78653E-05   -0.13635E-05  3339   0.507E-03
  12 F= -.11631152E+04 E0= -.11631129E+04  d E =-.174584E-02  mag=     5.9929
       N       E                     dE             d eps       ncg     rms          rms(c)
DAV:   1    -0.116311449642E+04    0.73358E-03   -0.10569E+00  6288   0.117E+00    0.203E-01
RMM:   2    -0.116311688743E+04   -0.23910E-02   -0.25708E-02  6166   0.193E-01    0.135E-01
RMM:   3    -0.116311686090E+04    0.26538E-04   -0.12457E-03  5805   0.636E-02    0.875E-02
RMM:   4    -0.116311683835E+04    0.22547E-04   -0.34397E-04  4614   0.209E-02    0.577E-02
RMM:   5    -0.116311683240E+04    0.59493E-05   -0.92385E-05  3708   0.140E-02    0.162E-02
RMM:   6    -0.116311684226E+04   -0.98610E-05   -0.33664E-05  3473   0.853E-03    0.121E-02
RMM:   7    -0.116311684877E+04   -0.65132E-05   -0.19018E-05  3400   0.652E-03    0.101E-02
RMM:   8    -0.116311685550E+04   -0.67234E-05   -0.13867E-05  3335   0.519E-03
  13 F= -.11631169E+04 E0= -.11631147E+04  d E =-.161763E-02  mag=     5.9937
       N       E                     dE             d eps       ncg     rms          rms(c)
DAV:   1    -0.116311687954E+04   -0.30768E-04   -0.40338E-01  6304   0.724E-01    0.126E-01
RMM:   2    -0.116311778460E+04   -0.90505E-03   -0.98826E-03  6214   0.120E-01    0.828E-02
RMM:   3    -0.116311776712E+04    0.17476E-04   -0.45463E-04  4587   0.393E-02    0.542E-02
RMM:   4    -0.116311775590E+04    0.11219E-04   -0.12101E-04  3654   0.142E-02    0.383E-02
RMM:   5    -0.116311775584E+04    0.58892E-07   -0.40941E-05  3497   0.968E-03    0.141E-02
RMM:   6    -0.116311775989E+04   -0.40495E-05   -0.18239E-05  3391   0.619E-03    0.103E-02
RMM:   7    -0.116311776250E+04   -0.26115E-05   -0.10073E-05  3163   0.503E-03    0.784E-03
RMM:   8    -0.116311776514E+04   -0.26325E-05   -0.72036E-06  2832   0.377E-03
  14 F= -.11631178E+04 E0= -.11631158E+04  d E =-.909639E-03  mag=     5.9941
       N       E                     dE             d eps       ncg     rms          rms(c)
DAV:   1    -0.116311734994E+04    0.41256E-03   -0.64986E-01  6304   0.918E-01    0.159E-01
RMM:   2    -0.116311881481E+04   -0.14649E-02   -0.15847E-02  6147   0.151E-01    0.103E-01
RMM:   3    -0.116311879356E+04    0.21252E-04   -0.73690E-04  5302   0.495E-02    0.675E-02
RMM:   4    -0.116311877290E+04    0.20663E-04   -0.18672E-04  3866   0.169E-02    0.485E-02
RMM:   5    -0.116311877081E+04    0.20880E-05   -0.54275E-05  3539   0.113E-02    0.167E-02
RMM:   6    -0.116311877619E+04   -0.53795E-05   -0.24777E-05  3435   0.718E-03    0.122E-02
RMM:   7    -0.116311877927E+04   -0.30743E-05   -0.13132E-05  3299   0.582E-03    0.901E-03
RMM:   8    -0.116311878214E+04   -0.28720E-05   -0.91869E-06  3072   0.425E-03
  15 F= -.11631188E+04 E0= -.11631169E+04  d E =-.101700E-02  mag=     5.9946
       N       E                     dE             d eps       ncg     rms          rms(c)
DAV:   1    -0.116311892083E+04   -0.14156E-03   -0.21705E-01  6368   0.532E-01    0.918E-02
RMM:   2    -0.116311940462E+04   -0.48379E-03   -0.52958E-03  6182   0.877E-02    0.575E-02
RMM:   3    -0.116311939434E+04    0.10284E-04   -0.22717E-04  3997   0.286E-02    0.381E-02
RMM:   4    -0.116311938662E+04    0.77204E-05   -0.75955E-05  3545   0.112E-02    0.260E-02
RMM:   5    -0.116311938912E+04   -0.25012E-05   -0.19271E-05  3420   0.713E-03    0.106E-02
RMM:   6    -0.116311939139E+04   -0.22732E-05   -0.10893E-05  3211   0.453E-03    0.824E-03
RMM:   7    -0.116311939267E+04   -0.12748E-05   -0.56288E-06  2768   0.407E-03    0.589E-03
RMM:   8    -0.116311939393E+04   -0.12664E-05   -0.39855E-06  2392   0.290E-03
  16 F= -.11631194E+04 E0= -.11631176E+04  d E =-.611796E-03  mag=     5.9949
       N       E                     dE             d eps       ncg     rms          rms(c)
DAV:   1    -0.116311943889E+04   -0.46222E-04   -0.24499E-01  6256   0.563E-01    0.964E-02
RMM:   2    -0.116311998728E+04   -0.54840E-03   -0.59211E-03  6118   0.925E-02    0.598E-02
RMM:   3    -0.116311997868E+04    0.86038E-05   -0.25913E-04  4075   0.311E-02    0.396E-02
RMM:   4    -0.116311997081E+04    0.78720E-05   -0.78508E-05  3538   0.114E-02    0.275E-02
RMM:   5    -0.116311997289E+04   -0.20799E-05   -0.21169E-05  3415   0.732E-03    0.106E-02
RMM:   6    -0.116311997509E+04   -0.21978E-05   -0.11186E-05  3203   0.467E-03    0.791E-03
RMM:   7    -0.116311997629E+04   -0.12072E-05   -0.58386E-06  2759   0.406E-03    0.570E-03
RMM:   8    -0.116311997743E+04   -0.11342E-05   -0.39713E-06  2384   0.292E-03
  17 F= -.11631200E+04 E0= -.11631183E+04  d E =-.583494E-03  mag=     5.9951
       N       E                     dE             d eps       ncg     rms          rms(c)
DAV:   1    -0.116312013876E+04   -0.16247E-03   -0.91170E-02  6160   0.344E-01    0.591E-02
RMM:   2    -0.116312034211E+04   -0.20335E-03   -0.22280E-03  6099   0.573E-02    0.370E-02
RMM:   3    -0.116312033793E+04    0.41862E-05   -0.90052E-05  3547   0.192E-02    0.243E-02
RMM:   4    -0.116312033556E+04    0.23642E-05   -0.35763E-05  3407   0.738E-03    0.148E-02
RMM:   5    -0.116312033670E+04   -0.11433E-05   -0.86505E-06  3091   0.457E-03    0.720E-03
RMM:   6    -0.116312033756E+04   -0.85235E-06   -0.43858E-06  2474   0.311E-03    0.455E-03
RMM:   7    -0.116312033813E+04   -0.56997E-06   -0.22549E-06  2041   0.275E-03    0.358E-03
RMM:   8    -0.116312033864E+04   -0.51413E-06   -0.13866E-06  1605   0.230E-03
  18 F= -.11631203E+04 E0= -.11631187E+04  d E =-.361213E-03  mag=     5.9954
       N       E                     dE             d eps       ncg     rms          rms(c)
DAV:   1    -0.116312040788E+04   -0.69754E-04   -0.18781E-01  6224   0.494E-01    0.839E-02
RMM:   2    -0.116312082538E+04   -0.41749E-03   -0.45399E-03  6116   0.815E-02    0.522E-02
RMM:   3    -0.116312081896E+04    0.64127E-05   -0.19366E-04  3850   0.275E-02    0.346E-02
RMM:   4    -0.116312081201E+04    0.69527E-05   -0.60791E-05  3502   0.995E-03    0.221E-02
RMM:   5    -0.116312081355E+04   -0.15375E-05   -0.16386E-05  3329   0.628E-03    0.940E-03
RMM:   6    -0.116312081491E+04   -0.13630E-05   -0.80299E-06  3043   0.412E-03    0.627E-03
RMM:   7    -0.116312081567E+04   -0.75730E-06   -0.41644E-06  2488   0.340E-03    0.448E-03
RMM:   8    -0.116312081631E+04   -0.63902E-06   -0.25839E-06  2010   0.263E-03
  19 F= -.11631208E+04 E0= -.11631192E+04  d E =-.477665E-03  mag=     5.9956
       N       E                     dE             d eps       ncg     rms          rms(c)
DAV:   1    -0.116312093465E+04   -0.11899E-03   -0.11892E-01  6160   0.393E-01    0.671E-02
RMM:   2    -0.116312119706E+04   -0.26241E-03   -0.28779E-03  6111   0.649E-02    0.419E-02
RMM:   3    -0.116312119125E+04    0.58187E-05   -0.11690E-04  3605   0.215E-02    0.276E-02
RMM:   4    -0.116312118680E+04    0.44437E-05   -0.43411E-05  3436   0.816E-03    0.168E-02
RMM:   5    -0.116312118811E+04   -0.13040E-05   -0.10463E-05  3151   0.500E-03    0.805E-03
RMM:   6    -0.116312118900E+04   -0.89673E-06   -0.52701E-06  2606   0.339E-03    0.514E-03
RMM:   7    -0.116312118953E+04   -0.52912E-06   -0.26736E-06  2127   0.288E-03    0.385E-03
RMM:   8    -0.116312118997E+04   -0.44340E-06   -0.15374E-06  1637   0.238E-03
  20 F= -.11631212E+04 E0= -.11631196E+04  d E =-.373668E-03  mag=     5.9957
       N       E                     dE             d eps       ncg     rms          rms(c)
DAV:   1    -0.116312115823E+04    0.31305E-04   -0.21445E-01  6192   0.527E-01    0.895E-02
RMM:   2    -0.116312163476E+04   -0.47654E-03   -0.51694E-03  6123   0.867E-02    0.560E-02
RMM:   3    -0.116312162782E+04    0.69429E-05   -0.22355E-04  3957   0.291E-02    0.372E-02
RMM:   4    -0.116312161956E+04    0.82644E-05   -0.66631E-05  3520   0.105E-02    0.243E-02
RMM:   5    -0.116312162107E+04   -0.15177E-05   -0.18558E-05  3339   0.669E-03    0.100E-02
RMM:   6    -0.116312162260E+04   -0.15259E-05   -0.91200E-06  3090   0.434E-03    0.650E-03
RMM:   7    -0.116312162339E+04   -0.79344E-06   -0.47091E-06  2545   0.360E-03    0.474E-03
RMM:   8    -0.116312162407E+04   -0.67973E-06   -0.29889E-06  2065   0.270E-03
  21 F= -.11631216E+04 E0= -.11631202E+04  d E =-.434097E-03  mag=     5.9960
       N       E                     dE             d eps       ncg     rms          rms(c)
DAV:   1    -0.116312164919E+04   -0.25799E-04   -0.14396E-01  6160   0.430E-01    0.739E-02
RMM:   2    -0.116312197056E+04   -0.32137E-03   -0.34904E-03  6100   0.714E-02    0.468E-02
RMM:   3    -0.116312196476E+04    0.58015E-05   -0.14318E-04  3684   0.234E-02    0.312E-02
RMM:   4    -0.116312195893E+04    0.58299E-05   -0.49996E-05  3451   0.889E-03    0.223E-02
RMM:   5    -0.116312196030E+04   -0.13705E-05   -0.12576E-05  3192   0.560E-03    0.931E-03
RMM:   6    -0.116312196149E+04   -0.11925E-05   -0.69016E-06  2750   0.368E-03    0.608E-03
RMM:   7    -0.116312196207E+04   -0.57694E-06   -0.33934E-06  2327   0.322E-03    0.450E-03
RMM:   8    -0.116312196253E+04   -0.46774E-06   -0.19930E-06  1710   0.242E-03
  22 F= -.11631220E+04 E0= -.11631205E+04  d E =-.338461E-03  mag=     5.9962
       N       E                     dE             d eps       ncg     rms          rms(c)
DAV:   1    -0.116312193735E+04    0.24719E-04   -0.15726E-01  6160   0.449E-01    0.757E-02
RMM:   2    -0.116312228783E+04   -0.35049E-03   -0.37964E-03  6103   0.740E-02    0.469E-02
RMM:   3    -0.116312228148E+04    0.63495E-05   -0.15835E-04  3758   0.245E-02    0.315E-02
RMM:   4    -0.116312227607E+04    0.54128E-05   -0.52664E-05  3471   0.931E-03    0.254E-02
RMM:   5    -0.116312227722E+04   -0.11502E-05   -0.13354E-05  3201   0.589E-03    0.810E-03
RMM:   6    -0.116312227857E+04   -0.13474E-05   -0.72971E-06  2844   0.376E-03    0.691E-03
RMM:   7    -0.116312227920E+04   -0.62947E-06   -0.35502E-06  2372   0.334E-03    0.417E-03
RMM:   8    -0.116312227974E+04   -0.54391E-06   -0.20610E-06  1754   0.241E-03
  23 F= -.11631223E+04 E0= -.11631209E+04  d E =-.317209E-03  mag=     5.9963
       N       E                     dE             d eps       ncg     rms          rms(c)
DAV:   1    -0.116312235770E+04   -0.78501E-04   -0.20540E-02  6288   0.163E-01    0.305E-02
RMM:   2    -0.116312240184E+04   -0.44142E-04   -0.50110E-04  4737   0.281E-02    0.219E-02
RMM:   3    -0.116312240238E+04   -0.53828E-06   -0.28611E-05  3288   0.103E-02    0.133E-02
RMM:   4    -0.116312240186E+04    0.51889E-06   -0.99956E-06  3092   0.429E-03    0.901E-03
RMM:   5    -0.116312240194E+04   -0.81476E-07   -0.34543E-06  2424   0.307E-03    0.269E-03
RMM:   6    -0.116312240226E+04   -0.31893E-06   -0.14381E-06  1554   0.222E-03    0.190E-03
RMM:   7    -0.116312240245E+04   -0.18952E-06   -0.63805E-07  1180   0.210E-03    0.146E-03
RMM:   8    -0.116312240275E+04   -0.29689E-06   -0.53624E-07  1010   0.196E-03
  24 F= -.11631224E+04 E0= -.11631210E+04  d E =-.123005E-03  mag=     5.9964
       N       E                     dE             d eps       ncg     rms          rms(c)
DAV:   1    -0.116312242886E+04   -0.26408E-04   -0.94490E-02  6160   0.348E-01    0.588E-02
RMM:   2    -0.116312263908E+04   -0.21022E-03   -0.22756E-03  6015   0.574E-02    0.368E-02
RMM:   3    -0.116312263542E+04    0.36586E-05   -0.92602E-05  3516   0.197E-02    0.242E-02
RMM:   4    -0.116312263274E+04    0.26804E-05   -0.32867E-05  3330   0.721E-03    0.155E-02
RMM:   5    -0.116312263341E+04   -0.67119E-06   -0.82420E-06  2972   0.446E-03    0.650E-03
RMM:   6    -0.116312263410E+04   -0.69101E-06   -0.37243E-06  2250   0.295E-03    0.410E-03
RMM:   7    -0.116312263448E+04   -0.37678E-06   -0.17584E-06  1788   0.257E-03    0.283E-03
RMM:   8    -0.116312263480E+04   -0.32180E-06   -0.90982E-07  1267   0.215E-03
  25 F= -.11631226E+04 E0= -.11631213E+04  d E =-.232051E-03  mag=     5.9965
       N       E                     dE             d eps       ncg     rms          rms(c)
DAV:   1    -0.116312268229E+04   -0.47814E-04   -0.65852E-02  6096   0.289E-01    0.492E-02
RMM:   2    -0.116312282880E+04   -0.14651E-03   -0.15821E-03  5881   0.479E-02    0.310E-02
RMM:   3    -0.116312282653E+04    0.22713E-05   -0.65401E-05  3450   0.164E-02    0.203E-02
RMM:   4    -0.116312282499E+04    0.15409E-05   -0.23930E-05  3299   0.614E-03    0.131E-02
RMM:   5    -0.116312282554E+04   -0.55495E-06   -0.63496E-06  2859   0.389E-03    0.572E-03
RMM:   6    -0.116312282609E+04   -0.54709E-06   -0.28358E-06  2043   0.266E-03    0.325E-03
RMM:   7    -0.116312282639E+04   -0.30300E-06   -0.11810E-06  1506   0.235E-03    0.217E-03
RMM:   8    -0.116312282671E+04   -0.32173E-06   -0.73873E-07  1162   0.208E-03
  26 F= -.11631228E+04 E0= -.11631215E+04  d E =-.191916E-03  mag=     5.9966
       N       E                     dE             d eps       ncg     rms          rms(c)
DAV:   1    -0.116312287998E+04   -0.53588E-04   -0.51663E-02  6112   0.256E-01    0.430E-02
RMM:   2    -0.116312299371E+04   -0.11373E-03   -0.12425E-03  5752   0.423E-02    0.272E-02
RMM:   3    -0.116312299164E+04    0.20733E-05   -0.51175E-05  3398   0.145E-02    0.178E-02
RMM:   4    -0.116312299046E+04    0.11726E-05   -0.20143E-05  3267   0.566E-03    0.105E-02
RMM:   5    -0.116312299086E+04   -0.39535E-06   -0.46823E-06  2706   0.354E-03    0.447E-03
RMM:   6    -0.116312299125E+04   -0.38942E-06   -0.20707E-06  1738   0.240E-03    0.249E-03
RMM:   7    -0.116312299147E+04   -0.22211E-06   -0.87628E-07  1336   0.224E-03    0.176E-03
RMM:   8    -0.116312299173E+04   -0.25542E-06   -0.54873E-07  1054   0.200E-03
  27 F= -.11631230E+04 E0= -.11631217E+04  d E =-.165014E-03  mag=     5.9967
