       N       E                     dE             d eps       ncg     rms          rms(c)
DAV:   1    -0.116341679374E+04   -0.11634E+04   -0.31320E-06  3472   0.367E-03    0.329E-03
RMM:   2    -0.116341679530E+04   -0.15608E-05   -0.24064E-06  1372   0.223E-03    0.349E-03
RMM:   3    -0.116341679582E+04   -0.52268E-06   -0.55707E-07   766   0.157E-03    0.314E-03
RMM:   4    -0.116341679515E+04    0.66937E-06   -0.17014E-07   656   0.153E-03    0.311E-03
RMM:   5    -0.116341679563E+04   -0.47921E-06   -0.60269E-08   483   0.145E-03    0.306E-03
RMM:   6    -0.116341680190E+04   -0.62693E-05   -0.10943E-05  1881   0.366E-03    0.379E-03
RMM:   7    -0.116341680360E+04   -0.16957E-05   -0.24555E-06   953   0.188E-03    0.345E-03
RMM:   8    -0.116341680362E+04   -0.25830E-07   -0.49425E-07   787   0.180E-03
   1 F= -.11634168E+04 E0= -.11634168E+04  d E =-.116342E+04  mag=    -2.0000
       N       E                     dE             d eps       ncg     rms          rms(c)
DAV:   1    -0.116341727227E+04   -0.46867E-03   -0.26128E-01  6288   0.589E-01    0.158E-01
RMM:   2    -0.116341771199E+04   -0.43972E-03   -0.79471E-03  6124   0.114E-01    0.159E-01
RMM:   3    -0.116341763754E+04    0.74456E-04   -0.35270E-04  4836   0.365E-02    0.110E-01
RMM:   4    -0.116341757073E+04    0.66807E-04   -0.21204E-04  4162   0.175E-02    0.777E-02
RMM:   5    -0.116341755073E+04    0.20004E-04   -0.57465E-05  3571   0.114E-02    0.221E-02
RMM:   6    -0.116341755058E+04    0.14494E-06   -0.21024E-05  3426   0.645E-03    0.155E-02
RMM:   7    -0.116341755150E+04   -0.92019E-06   -0.84780E-06  3146   0.476E-03    0.963E-03
RMM:   8    -0.116341755272E+04   -0.12172E-05   -0.53039E-06  2875   0.336E-03
   2 F= -.11634176E+04 E0= -.11634176E+04  d E =-.749096E-03  mag=    -2.0000
       N       E                     dE             d eps       ncg     rms          rms(c)
DAV:   1    -0.116341801639E+04   -0.46489E-03   -0.62990E-02  6080   0.289E-01    0.783E-02
RMM:   2    -0.116341807951E+04   -0.63118E-04   -0.20134E-03  6067   0.576E-02    0.821E-02
RMM:   3    -0.116341805354E+04    0.25970E-04   -0.80782E-05  3545   0.185E-02    0.551E-02
RMM:   4    -0.116341803006E+04    0.23475E-04   -0.77751E-05  3561   0.977E-03    0.277E-02
RMM:   5    -0.116341802542E+04    0.46435E-05   -0.19513E-05  3298   0.614E-03    0.101E-02
RMM:   6    -0.116341802632E+04   -0.89551E-06   -0.63857E-06  2857   0.362E-03    0.868E-03
RMM:   7    -0.116341802704E+04   -0.72432E-06   -0.25564E-06  2130   0.272E-03    0.612E-03
RMM:   8    -0.116341802862E+04   -0.15792E-05   -0.26927E-06  2001   0.253E-03
   3 F= -.11634180E+04 E0= -.11634180E+04  d E =-.475901E-03  mag=    -2.0000
