       N       E                     dE             d eps       ncg     rms          rms(c)
DAV:   1    -0.116376633442E+04   -0.11638E+04   -0.11355E-05  3760   0.784E-03    0.100E-02
RMM:   2    -0.116376633471E+04   -0.28922E-06   -0.68857E-06  3044   0.385E-03    0.129E-02
RMM:   3    -0.116376633483E+04   -0.11803E-06   -0.23607E-06  2323   0.267E-03    0.221E-03
RMM:   4    -0.116376633502E+04   -0.19114E-06   -0.11015E-06  1549   0.229E-03    0.246E-03
RMM:   5    -0.116376633515E+04   -0.12657E-06   -0.65935E-07  1319   0.213E-03    0.166E-03
RMM:   6    -0.116376633530E+04   -0.15346E-06   -0.37817E-07  1021   0.202E-03    0.133E-03
RMM:   7    -0.116376633543E+04   -0.13266E-06   -0.26566E-07   927   0.193E-03    0.116E-03
RMM:   8    -0.116376633553E+04   -0.98880E-07   -0.19321E-07   829   0.193E-03
   1 F= -.11637663E+04 E0= -.11637655E+04  d E =-.116377E+04  mag=     5.9832
       N       E                     dE             d eps       ncg     rms          rms(c)
DAV:   1    -0.116376705447E+04   -0.71904E-03   -0.43592E-01  6400   0.769E-01    0.182E-01
RMM:   2    -0.116376793835E+04   -0.88388E-03   -0.12002E-02  6147   0.139E-01    0.176E-01
RMM:   3    -0.116376786139E+04    0.76966E-04   -0.51904E-04  5291   0.399E-02    0.117E-01
RMM:   4    -0.116376778944E+04    0.71943E-04   -0.21481E-04  4091   0.175E-02    0.732E-02
RMM:   5    -0.116376777364E+04    0.15809E-04   -0.78732E-05  3610   0.120E-02    0.323E-02
RMM:   6    -0.116376777652E+04   -0.28889E-05   -0.25328E-05  3470   0.784E-03    0.165E-02
RMM:   7    -0.116376777716E+04   -0.63564E-06   -0.11694E-05  3287   0.485E-03    0.125E-02
RMM:   8    -0.116376777782E+04   -0.65639E-06   -0.59975E-06  3063   0.399E-03
   2 F= -.11637678E+04 E0= -.11637670E+04  d E =-.144228E-02  mag=     5.9833
       N       E                     dE             d eps       ncg     rms          rms(c)
DAV:   1    -0.116376844871E+04   -0.67155E-03   -0.11692E-01  6208   0.397E-01    0.923E-02
RMM:   2    -0.116376864947E+04   -0.20076E-03   -0.34959E-03  6120   0.742E-02    0.915E-02
RMM:   3    -0.116376861950E+04    0.29976E-04   -0.11938E-04  3690   0.202E-02    0.634E-02
RMM:   4    -0.116376859431E+04    0.25192E-04   -0.82973E-05  3570   0.108E-02    0.334E-02
RMM:   5    -0.116376858656E+04    0.77514E-05   -0.32219E-05  3458   0.770E-03    0.116E-02
RMM:   6    -0.116376858729E+04   -0.73446E-06   -0.97314E-06  3077   0.457E-03    0.994E-03
RMM:   7    -0.116376858771E+04   -0.42102E-06   -0.41284E-06  2475   0.318E-03    0.790E-03
RMM:   8    -0.116376858809E+04   -0.38276E-06   -0.26273E-06  2256   0.267E-03
   3 F= -.11637686E+04 E0= -.11637678E+04  d E =-.810277E-03  mag=     5.9835
       N       E                     dE             d eps       ncg     rms          rms(c)
DAV:   1    -0.116376907468E+04   -0.48697E-03   -0.20649E-01  6288   0.529E-01    0.995E-02
RMM:   2    -0.116376951755E+04   -0.44287E-03   -0.51204E-03  6194   0.882E-02    0.730E-02
RMM:   3    -0.116376950370E+04    0.13848E-04   -0.21193E-04  3915   0.288E-02    0.475E-02
RMM:   4    -0.116376949450E+04    0.92019E-05   -0.69229E-05  3476   0.106E-02    0.343E-02
RMM:   5    -0.116376949223E+04    0.22687E-05   -0.21142E-05  3360   0.700E-03    0.983E-03
RMM:   6    -0.116376949333E+04   -0.10974E-05   -0.98543E-06  3124   0.444E-03    0.678E-03
RMM:   7    -0.116376949382E+04   -0.49287E-06   -0.49268E-06  2619   0.372E-03    0.406E-03
RMM:   8    -0.116376949416E+04   -0.34085E-06   -0.28715E-06  2035   0.267E-03
   4 F= -.11637695E+04 E0= -.11637687E+04  d E =-.906068E-03  mag=     5.9835
       N       E                     dE             d eps       ncg     rms          rms(c)
DAV:   1    -0.116376991911E+04   -0.42529E-03   -0.19864E-01  6224   0.517E-01    0.905E-02
RMM:   2    -0.116377035502E+04   -0.43591E-03   -0.49145E-03  6191   0.855E-02    0.601E-02
RMM:   3    -0.116377034302E+04    0.11993E-04   -0.20191E-04  3862   0.279E-02    0.405E-02
RMM:   4    -0.116377033552E+04    0.75032E-05   -0.66466E-05  3490   0.100E-02    0.279E-02
RMM:   5    -0.116377033388E+04    0.16378E-05   -0.20041E-05  3370   0.666E-03    0.854E-03
RMM:   6    -0.116377033487E+04   -0.98976E-06   -0.94102E-06  3092   0.430E-03    0.594E-03
RMM:   7    -0.116377033543E+04   -0.56124E-06   -0.48541E-06  2580   0.366E-03    0.395E-03
RMM:   8    -0.116377033582E+04   -0.39065E-06   -0.28613E-06  1991   0.270E-03
   5 F= -.11637703E+04 E0= -.11637695E+04  d E =-.841663E-03  mag=     5.9836
