       N       E                     dE             d eps       ncg     rms          rms(c)
DAV:   1     0.120793610833E+05    0.12079E+05   -0.42683E+05  6160   0.132E+03
DAV:   2     0.685718266397E+03   -0.11394E+05   -0.10178E+05  6160   0.379E+02
DAV:   3    -0.137056053761E+04   -0.20563E+04   -0.19808E+04  6592   0.167E+02
DAV:   4    -0.151009754634E+04   -0.13954E+03   -0.13727E+03  8088   0.459E+01
DAV:   5    -0.151919068716E+04   -0.90931E+01   -0.90526E+01 11128   0.109E+01    0.180E+02
RMM:   6    -0.117343447348E+04    0.34576E+03   -0.16389E+03  6255   0.356E+01    0.122E+02
RMM:   7    -0.115709535984E+04    0.16339E+02   -0.60486E+01  6394   0.117E+01    0.738E+01
RMM:   8    -0.116031520813E+04   -0.32198E+01   -0.19230E+01  7048   0.483E+00    0.363E+01
RMM:   9    -0.116493733710E+04   -0.46221E+01   -0.76201E+00  6520   0.327E+00    0.112E+01
RMM:  10    -0.116604845067E+04   -0.11111E+01   -0.20273E+00  6941   0.152E+00    0.743E+00
RMM:  11    -0.116726884072E+04   -0.12204E+01   -0.14638E+00  6919   0.978E-01    0.409E+00
RMM:  12    -0.116799181738E+04   -0.72298E+00   -0.65707E-01  6837   0.809E-01    0.213E+00
RMM:  13    -0.116818438201E+04   -0.19256E+00   -0.25194E-01  7524   0.457E-01    0.130E+00
RMM:  14    -0.116823549724E+04   -0.51115E-01   -0.10933E-01  7310   0.292E-01    0.776E-01
RMM:  15    -0.116824443062E+04   -0.89334E-02   -0.32926E-02  7713   0.168E-01    0.633E-01
RMM:  16    -0.116824699355E+04   -0.25629E-02   -0.15857E-02  8021   0.101E-01    0.308E-01
RMM:  17    -0.116824681163E+04    0.18192E-03   -0.49616E-03  6843   0.650E-02    0.125E-01
RMM:  18    -0.116824697073E+04   -0.15910E-03   -0.21701E-03  6561   0.287E-02    0.575E-02
RMM:  19    -0.116824705593E+04   -0.85200E-04   -0.93393E-04  5192   0.206E-02
   1 F= -.11682471E+04 E0= -.11682471E+04  d E =-.116825E+04  mag=    10.0016
       N       E                     dE             d eps       ncg     rms          rms(c)
DAV:   1    -0.115452399715E+04    0.13723E+02   -0.30899E+02  7472   0.158E+01    0.153E+01
RMM:   2    -0.116899402786E+04   -0.14470E+02   -0.22602E+01  6490   0.491E+00    0.259E+01
RMM:   3    -0.116913878086E+04   -0.14475E+00   -0.13420E+00  6377   0.182E+00    0.798E+00
RMM:   4    -0.116910254146E+04    0.36239E-01   -0.85398E-01  6728   0.905E-01    0.218E+00
RMM:   5    -0.116909235536E+04    0.10186E-01   -0.92769E-02  6932   0.305E-01    0.231E+00
RMM:   6    -0.116908917747E+04    0.31779E-02   -0.31275E-02  6880   0.158E-01    0.120E+00
RMM:   7    -0.116909010698E+04   -0.92952E-03   -0.12733E-02  6788   0.105E-01    0.812E-01
RMM:   8    -0.116909020383E+04   -0.96844E-04   -0.15636E-03  6855   0.379E-02    0.439E-01
RMM:   9    -0.116908986933E+04    0.33449E-03   -0.15741E-03  5747   0.329E-02    0.209E-01
RMM:  10    -0.116908986080E+04    0.85331E-05   -0.22588E-04  4228   0.187E-02
   2 F= -.11690899E+04 E0= -.11690899E+04  d E =-.842805E+00  mag=    10.0001
       N       E                     dE             d eps       ncg     rms          rms(c)
DAV:   1    -0.116906768478E+04    0.22185E-01   -0.26621E+00  6952   0.142E+00    0.144E+00
RMM:   2    -0.116909306799E+04   -0.25383E-01   -0.60299E-02  6107   0.279E-01    0.853E-01
RMM:   3    -0.116909787599E+04   -0.48080E-02   -0.39826E-03  6007   0.108E-01    0.433E-01
RMM:   4    -0.116909754760E+04    0.32839E-03   -0.20227E-03  5576   0.437E-02    0.141E-01
RMM:   5    -0.116909760936E+04   -0.61759E-04   -0.28859E-04  4271   0.218E-02    0.747E-02
RMM:   6    -0.116909761754E+04   -0.81884E-05   -0.41200E-05  3722   0.958E-03    0.328E-02
RMM:   7    -0.116909761352E+04    0.40274E-05   -0.28987E-05  3599   0.633E-03    0.185E-02
RMM:   8    -0.116909761444E+04   -0.92025E-06   -0.92115E-06  3349   0.466E-03
   3 F= -.11690976E+04 E0= -.11690976E+04  d E =-.850559E+00  mag=    10.0000
       N       E                     dE             d eps       ncg     rms          rms(c)
DAV:   1    -0.116892924262E+04    0.16837E+00   -0.10586E+02  6480   0.108E+01    0.487E+00
RMM:   2    -0.116928692395E+04   -0.35768E+00   -0.31156E+00  6156   0.218E+00    0.391E+00
RMM:   3    -0.116931818790E+04   -0.31264E-01   -0.17226E-01  6668   0.626E-01    0.188E+00
RMM:   4    -0.116930375422E+04    0.14434E-01   -0.30102E-02  7069   0.192E-01    0.129E+00
RMM:   5    -0.116929527853E+04    0.84757E-02   -0.33441E-02  6194   0.170E-01    0.393E-01
RMM:   6    -0.116929535589E+04   -0.77362E-04   -0.33690E-03  6517   0.845E-02    0.260E-01
RMM:   7    -0.116929524217E+04    0.11372E-03   -0.82204E-04  6580   0.233E-02    0.963E-02
RMM:   8    -0.116929521911E+04    0.23064E-04   -0.36732E-04  5093   0.184E-02
   4 F= -.11692952E+04 E0= -.11692952E+04  d E =-.197605E+00  mag=    10.0000
       N       E                     dE             d eps       ncg     rms          rms(c)
DAV:   1    -0.116929430605E+04    0.93612E-03   -0.92844E-01  6968   0.101E+00    0.479E-01
RMM:   2    -0.116929727921E+04   -0.29732E-02   -0.25605E-02  6084   0.199E-01    0.382E-01
RMM:   3    -0.116929753570E+04   -0.25650E-03   -0.13090E-03  5773   0.573E-02    0.178E-01
RMM:   4    -0.116929740365E+04    0.13205E-03   -0.20851E-04  3925   0.189E-02    0.110E-01
RMM:   5    -0.116929734402E+04    0.59636E-04   -0.29306E-04  4281   0.174E-02    0.393E-02
RMM:   6    -0.116929734362E+04    0.39089E-06   -0.25802E-05  3432   0.921E-03    0.243E-02
RMM:   7    -0.116929734342E+04    0.20622E-06   -0.78874E-06  2911   0.333E-03    0.887E-03
RMM:   8    -0.116929734329E+04    0.12998E-06   -0.28265E-06  2451   0.289E-03
   5 F= -.11692973E+04 E0= -.11692973E+04  d E =-.199729E+00  mag=    10.0000
       N       E                     dE             d eps       ncg     rms          rms(c)
DAV:   1    -0.116930632538E+04   -0.89820E-02   -0.25111E+01  6400   0.566E+00    0.151E+00
RMM:   2    -0.116934655950E+04   -0.40234E-01   -0.68224E-01  6173   0.104E+00    0.115E+00
RMM:   3    -0.116934174337E+04    0.48161E-02   -0.38540E-02  6490   0.344E-01    0.718E-01
RMM:   4    -0.116933493744E+04    0.68059E-02   -0.20387E-02  6634   0.144E-01    0.372E-01
RMM:   5    -0.116933386303E+04    0.10744E-02   -0.37620E-03  6704   0.704E-02    0.194E-01
RMM:   6    -0.116933387162E+04   -0.85879E-05   -0.80896E-04  6321   0.236E-02    0.141E-01
RMM:   7    -0.116933386523E+04    0.63847E-05   -0.17775E-04  4360   0.142E-02    0.773E-02
RMM:   8    -0.116933386675E+04   -0.15143E-05   -0.12207E-04  4043   0.131E-02
   6 F= -.11693339E+04 E0= -.11693339E+04  d E =-.365235E-01  mag=    10.0000
       N       E                     dE             d eps       ncg     rms          rms(c)
DAV:   1    -0.116933932514E+04   -0.54599E-02   -0.21495E+00  6648   0.165E+00    0.444E-01
RMM:   2    -0.116934280825E+04   -0.34831E-02   -0.58107E-02  6178   0.304E-01    0.331E-01
RMM:   3    -0.116934237488E+04    0.43337E-03   -0.31723E-03  6180   0.100E-01    0.206E-01
RMM:   4    -0.116934177097E+04    0.60391E-03   -0.17244E-03  5832   0.436E-02    0.995E-02
RMM:   5    -0.116934169192E+04    0.79054E-04   -0.26026E-04  4512   0.229E-02    0.641E-02
RMM:   6    -0.116934169262E+04   -0.70441E-06   -0.61405E-05  3599   0.101E-02    0.498E-02
RMM:   7    -0.116934169294E+04   -0.32029E-06   -0.23838E-05  3453   0.673E-03    0.237E-02
RMM:   8    -0.116934169366E+04   -0.71732E-06   -0.13942E-05  3344   0.516E-03
   7 F= -.11693417E+04 E0= -.11693417E+04  d E =-.443504E-01  mag=    10.0000
       N       E                     dE             d eps       ncg     rms          rms(c)
DAV:   1    -0.116934742016E+04   -0.57272E-02   -0.10936E+01  6400   0.383E+00    0.773E-01
RMM:   2    -0.116937123044E+04   -0.23810E-01   -0.26756E-01  6189   0.654E-01    0.518E-01
RMM:   3    -0.116937123701E+04   -0.65699E-05   -0.14424E-02  6433   0.221E-01    0.328E-01
RMM:   4    -0.116937054932E+04    0.68768E-03   -0.39507E-03  7359   0.666E-02    0.163E-01
RMM:   5    -0.116937049305E+04    0.56275E-04   -0.92681E-04  6526   0.295E-02    0.536E-02
RMM:   6    -0.116937050371E+04   -0.10660E-04   -0.17510E-04  4094   0.138E-02    0.373E-02
RMM:   7    -0.116937051010E+04   -0.63948E-05   -0.70360E-05  3731   0.107E-02    0.204E-02
RMM:   8    -0.116937051649E+04   -0.63903E-05   -0.63980E-05  3629   0.850E-03
   8 F= -.11693705E+04 E0= -.11693705E+04  d E =-.288228E-01  mag=    10.0000
       N       E                     dE             d eps       ncg     rms          rms(c)
DAV:   1    -0.116933672197E+04    0.33788E-01   -0.23626E+01  6360   0.563E+00    0.114E+00
RMM:   2    -0.116938827311E+04   -0.51551E-01   -0.57931E-01  6187   0.961E-01    0.762E-01
RMM:   3    -0.116938828341E+04   -0.10305E-04   -0.31606E-02  6499   0.326E-01    0.482E-01
RMM:   4    -0.116938680727E+04    0.14761E-02   -0.85191E-03  7713   0.979E-02    0.242E-01
RMM:   5    -0.116938668921E+04    0.11806E-03   -0.21282E-03  7539   0.433E-02    0.730E-02
RMM:   6    -0.116938672631E+04   -0.37100E-04   -0.48168E-04  5512   0.200E-02    0.553E-02
RMM:   7    -0.116938674515E+04   -0.18837E-04   -0.21344E-04  4477   0.137E-02    0.315E-02
RMM:   8    -0.116938675906E+04   -0.13907E-04   -0.14776E-04  4095   0.114E-02
   9 F= -.11693868E+04 E0= -.11693868E+04  d E =-.450654E-01  mag=    10.0000
       N       E                     dE             d eps       ncg     rms          rms(c)
DAV:   1    -0.116938873289E+04   -0.19877E-02   -0.79426E+00  6472   0.326E+00    0.811E-01
RMM:   2    -0.116940742516E+04   -0.18692E-01   -0.19978E-01  6230   0.564E-01    0.523E-01
RMM:   3    -0.116940766649E+04   -0.24133E-03   -0.10974E-02  6544   0.185E-01    0.316E-01
RMM:   4    -0.116940699252E+04    0.67397E-03   -0.29803E-03  7760   0.583E-02    0.170E-01
RMM:   5    -0.116940684254E+04    0.14998E-03   -0.99070E-04  6723   0.290E-02    0.557E-02
RMM:   6    -0.116940685063E+04   -0.80844E-05   -0.16633E-04  4112   0.142E-02    0.274E-02
RMM:   7    -0.116940685689E+04   -0.62621E-05   -0.84349E-05  3776   0.111E-02    0.151E-02
RMM:   8    -0.116940686161E+04   -0.47242E-05   -0.60170E-05  3637   0.864E-03
  10 F= -.11694069E+04 E0= -.11694069E+04  d E =-.201026E-01  mag=    10.0000
       N       E                     dE             d eps       ncg     rms          rms(c)
DAV:   1    -0.116939951467E+04    0.73422E-02   -0.60723E+00  6408   0.285E+00    0.708E-01
RMM:   2    -0.116941380666E+04   -0.14292E-01   -0.15265E-01  6224   0.494E-01    0.455E-01
RMM:   3    -0.116941400629E+04   -0.19963E-03   -0.84351E-03  6505   0.162E-01    0.276E-01
RMM:   4    -0.116941348647E+04    0.51982E-03   -0.23000E-03  7581   0.511E-02    0.147E-01
RMM:   5    -0.116941337573E+04    0.11074E-03   -0.73416E-04  6357   0.254E-02    0.475E-02
RMM:   6    -0.116941338153E+04   -0.58001E-05   -0.12019E-04  3906   0.128E-02    0.237E-02
RMM:   7    -0.116941338650E+04   -0.49636E-05   -0.67087E-05  3702   0.102E-02    0.122E-02
RMM:   8    -0.116941338996E+04   -0.34681E-05   -0.44474E-05  3578   0.789E-03
  11 F= -.11694134E+04 E0= -.11694134E+04  d E =-.266309E-01  mag=    10.0000
       N       E                     dE             d eps       ncg     rms          rms(c)
DAV:   1    -0.116941091005E+04    0.24764E-02   -0.57794E+00  6464   0.276E+00    0.680E-01
RMM:   2    -0.116942576357E+04   -0.14854E-01   -0.15229E-01  6187   0.501E-01    0.439E-01
RMM:   3    -0.116942616135E+04   -0.39778E-03   -0.87820E-03  6619   0.156E-01    0.269E-01
RMM:   4    -0.116942569593E+04    0.46541E-03   -0.18046E-03  7460   0.465E-02    0.153E-01
RMM:   5    -0.116942556150E+04    0.13443E-03   -0.77698E-04  6176   0.260E-02    0.687E-02
RMM:   6    -0.116942556764E+04   -0.61390E-05   -0.13160E-04  3822   0.141E-02    0.360E-02
RMM:   7    -0.116942557023E+04   -0.25841E-05   -0.49807E-05  3618   0.942E-03    0.196E-02
RMM:   8    -0.116942557348E+04   -0.32521E-05   -0.44650E-05  3554   0.812E-03
  12 F= -.11694256E+04 E0= -.11694256E+04  d E =-.121835E-01  mag=    10.0000
       N       E                     dE             d eps       ncg     rms          rms(c)
DAV:   1    -0.116942057027E+04    0.50000E-02   -0.31023E+00  6456   0.202E+00    0.496E-01
RMM:   2    -0.116942853924E+04   -0.79690E-02   -0.81676E-02  6185   0.368E-01    0.319E-01
RMM:   3    -0.116942875727E+04   -0.21803E-03   -0.47792E-03  6575   0.114E-01    0.196E-01
RMM:   4    -0.116942850807E+04    0.24920E-03   -0.94180E-04  6538   0.342E-02    0.113E-01
RMM:   5    -0.116942843261E+04    0.75462E-04   -0.41166E-04  5087   0.212E-02    0.505E-02
RMM:   6    -0.116942843830E+04   -0.56901E-05   -0.82399E-05  3635   0.126E-02    0.280E-02
RMM:   7    -0.116942844112E+04   -0.28224E-05   -0.39522E-05  3526   0.855E-03    0.155E-02
RMM:   8    -0.116942844327E+04   -0.21470E-05   -0.27792E-05  3395   0.709E-03
  13 F= -.11694284E+04 E0= -.11694284E+04  d E =-.150533E-01  mag=    10.0000
       N       E                     dE             d eps       ncg     rms          rms(c)
DAV:   1    -0.116942507358E+04    0.33675E-02   -0.50680E+00  6448   0.261E+00    0.617E-01
RMM:   2    -0.116943696308E+04   -0.11890E-01   -0.12530E-01  6229   0.445E-01    0.407E-01
RMM:   3    -0.116943711618E+04   -0.15310E-03   -0.64442E-03  6424   0.144E-01    0.253E-01
RMM:   4    -0.116943675955E+04    0.35663E-03   -0.18987E-03  7358   0.460E-02    0.127E-01
RMM:   5    -0.116943671739E+04    0.42159E-04   -0.52314E-04  5737   0.222E-02    0.398E-02
RMM:   6    -0.116943672148E+04   -0.40934E-05   -0.85712E-05  3698   0.117E-02    0.212E-02
RMM:   7    -0.116943672595E+04   -0.44676E-05   -0.57170E-05  3587   0.942E-03    0.139E-02
RMM:   8    -0.116943672898E+04   -0.30310E-05   -0.35630E-05  3430   0.706E-03
  14 F= -.11694367E+04 E0= -.11694367E+04  d E =-.828571E-02  mag=    10.0000
       N       E                     dE             d eps       ncg     rms          rms(c)
DAV:   1    -0.116943386710E+04    0.28589E-02   -0.18427E+00  6496   0.157E+00    0.371E-01
RMM:   2    -0.116943821431E+04   -0.43472E-02   -0.45814E-02  6239   0.269E-01    0.246E-01
RMM:   3    -0.116943826308E+04   -0.48775E-04   -0.23830E-03  6362   0.872E-02    0.153E-01
RMM:   4    -0.116943813008E+04    0.13300E-03   -0.67342E-04  5899   0.282E-02    0.770E-02
RMM:   5    -0.116943811329E+04    0.16790E-04   -0.17197E-04  3921   0.165E-02    0.243E-02
RMM:   6    -0.116943811801E+04   -0.47177E-05   -0.46237E-05  3540   0.105E-02    0.143E-02
RMM:   7    -0.116943812108E+04   -0.30635E-05   -0.33674E-05  3441   0.752E-03    0.125E-02
RMM:   8    -0.116943812281E+04   -0.17357E-05   -0.18868E-05  3216   0.635E-03
  15 F= -.11694381E+04 E0= -.11694381E+04  d E =-.967954E-02  mag=    10.0000
       N       E                     dE             d eps       ncg     rms          rms(c)
DAV:   1    -0.116943190056E+04    0.62205E-02   -0.65683E+00  6376   0.296E+00    0.595E-01
RMM:   2    -0.116944642722E+04   -0.14527E-01   -0.15774E-01  6199   0.489E-01    0.396E-01
RMM:   3    -0.116944640160E+04    0.25622E-04   -0.79725E-03  6306   0.164E-01    0.247E-01
RMM:   4    -0.116944602508E+04    0.37652E-03   -0.23595E-03  7510   0.505E-02    0.118E-01
RMM:   5    -0.116944600027E+04    0.24810E-04   -0.57014E-04  5859   0.231E-02    0.599E-02
RMM:   6    -0.116944600840E+04   -0.81314E-05   -0.12652E-04  3807   0.126E-02    0.312E-02
RMM:   7    -0.116944601297E+04   -0.45666E-05   -0.54422E-05  3626   0.986E-03    0.172E-02
RMM:   8    -0.116944601792E+04   -0.49511E-05   -0.53589E-05  3546   0.786E-03
  16 F= -.11694460E+04 E0= -.11694460E+04  d E =-.789511E-02  mag=    10.0000
       N       E                     dE             d eps       ncg     rms          rms(c)
DAV:   1    -0.116944189130E+04    0.41217E-02   -0.25796E+00  6464   0.185E+00    0.373E-01
RMM:   2    -0.116944761665E+04   -0.57254E-02   -0.62146E-02  6197   0.307E-01    0.248E-01
RMM:   3    -0.116944760155E+04    0.15103E-04   -0.32029E-03  6263   0.104E-01    0.155E-01
RMM:   4    -0.116944745032E+04    0.15123E-03   -0.94226E-04  6375   0.325E-02    0.734E-02
RMM:   5    -0.116944744204E+04    0.82818E-05   -0.20706E-04  4186   0.172E-02    0.504E-02
RMM:   6    -0.116944744777E+04   -0.57250E-05   -0.62778E-05  3601   0.112E-02    0.207E-02
RMM:   7    -0.116944745196E+04   -0.41962E-05   -0.42542E-05  3505   0.819E-03    0.126E-02
RMM:   8    -0.116944745438E+04   -0.24136E-05   -0.27261E-05  3335   0.710E-03
  17 F= -.11694475E+04 E0= -.11694475E+04  d E =-.933157E-02  mag=    10.0000
       N       E                     dE             d eps       ncg     rms          rms(c)
DAV:   1    -0.116944059310E+04    0.68589E-02   -0.58111E+00  6384   0.276E+00    0.544E-01
RMM:   2    -0.116945311344E+04   -0.12520E-01   -0.13998E-01  6173   0.465E-01    0.396E-01
RMM:   3    -0.116945307224E+04    0.41199E-04   -0.70799E-03  6273   0.153E-01    0.247E-01
RMM:   4    -0.116945261806E+04    0.45418E-03   -0.21747E-03  6964   0.484E-02    0.131E-01
RMM:   5    -0.116945254747E+04    0.70588E-04   -0.57704E-04  5754   0.244E-02    0.856E-02
RMM:   6    -0.116945255313E+04   -0.56610E-05   -0.11358E-04  3765   0.127E-02    0.303E-02
RMM:   7    -0.116945255643E+04   -0.32982E-05   -0.51044E-05  3623   0.900E-03    0.199E-02
RMM:   8    -0.116945256019E+04   -0.37612E-05   -0.44241E-05  3558   0.779E-03
  18 F= -.11694526E+04 E0= -.11694526E+04  d E =-.510582E-02  mag=    10.0000
       N       E                     dE             d eps       ncg     rms          rms(c)
DAV:   1    -0.116945247379E+04    0.82638E-04   -0.65159E-02  6720   0.292E-01    0.571E-02
RMM:   2    -0.116945262371E+04   -0.14991E-03   -0.16685E-03  6132   0.504E-02    0.415E-02
RMM:   3    -0.116945261874E+04    0.49637E-05   -0.72311E-05  3529   0.158E-02    0.265E-02
RMM:   4    -0.116945261476E+04    0.39814E-05   -0.33954E-05  3472   0.700E-03    0.164E-02
RMM:   5    -0.116945261500E+04   -0.23741E-06   -0.11988E-05  3092   0.499E-03    0.188E-02
RMM:   6    -0.116945261557E+04   -0.57255E-06   -0.78915E-06  2692   0.361E-03    0.366E-03
RMM:   7    -0.116945261588E+04   -0.30745E-06   -0.37050E-06  2199   0.316E-03    0.433E-03
RMM:   8    -0.116945261616E+04   -0.28475E-06   -0.33934E-06  1737   0.254E-03
  19 F= -.11694526E+04 E0= -.11694526E+04  d E =-.516179E-02  mag=    10.0000
       N       E                     dE             d eps       ncg     rms          rms(c)
DAV:   1    -0.116944578163E+04    0.68342E-02   -0.50992E+00  6320   0.259E+00    0.470E-01
RMM:   2    -0.116945651760E+04   -0.10736E-01   -0.12211E-01  6161   0.434E-01    0.319E-01
RMM:   3    -0.116945636363E+04    0.15397E-03   -0.62757E-03  6199   0.148E-01    0.206E-01
RMM:   4    -0.116945603533E+04    0.32830E-03   -0.19085E-03  6965   0.451E-02    0.107E-01
RMM:   5    -0.116945599621E+04    0.39116E-04   -0.40139E-04  5242   0.212E-02    0.379E-02
RMM:   6    -0.116945600305E+04   -0.68380E-05   -0.87174E-05  3690   0.120E-02    0.295E-02
RMM:   7    -0.116945600784E+04   -0.47913E-05   -0.53699E-05  3591   0.881E-03    0.190E-02
RMM:   8    -0.116945601086E+04   -0.30135E-05   -0.36422E-05  3485   0.740E-03
  20 F= -.11694560E+04 E0= -.11694560E+04  d E =-.339469E-02  mag=    10.0000
       N       E                     dE             d eps       ncg     rms          rms(c)
DAV:   1    -0.116945600165E+04    0.61920E-05   -0.11033E-02  6848   0.121E-01    0.219E-02
RMM:   2    -0.116945602577E+04   -0.24119E-04   -0.27355E-04  4070   0.215E-02    0.164E-02
RMM:   3    -0.116945602748E+04   -0.17066E-05   -0.27219E-05  3359   0.926E-03    0.100E-02
RMM:   4    -0.116945602795E+04   -0.47406E-06   -0.13225E-05  3115   0.459E-03    0.813E-03
RMM:   5    -0.116945602822E+04   -0.27128E-06   -0.68891E-06  2444   0.371E-03    0.740E-03
RMM:   6    -0.116945602856E+04   -0.33999E-06   -0.46018E-06  1956   0.282E-03    0.166E-03
RMM:   7    -0.116945602877E+04   -0.20968E-06   -0.26304E-06  1647   0.275E-03    0.171E-03
RMM:   8    -0.116945602897E+04   -0.19716E-06   -0.21433E-06  1276   0.230E-03
  21 F= -.11694560E+04 E0= -.11694560E+04  d E =-.341281E-02  mag=    10.0000
       N       E                     dE             d eps       ncg     rms          rms(c)
DAV:   1    -0.116945413801E+04    0.18908E-02   -0.17345E+00  6360   0.154E+00    0.343E-01
RMM:   2    -0.116945802811E+04   -0.38901E-02   -0.45220E-02  6164   0.271E-01    0.260E-01
RMM:   3    -0.116945798099E+04    0.47124E-04   -0.23087E-03  6177   0.897E-02    0.170E-01
RMM:   4    -0.116945783086E+04    0.15013E-03   -0.67590E-04  5779   0.283E-02    0.980E-02
RMM:   5    -0.116945778706E+04    0.43799E-04   -0.20936E-04  4101   0.181E-02    0.372E-02
RMM:   6    -0.116945779237E+04   -0.53078E-05   -0.50815E-05  3539   0.114E-02    0.277E-02
RMM:   7    -0.116945779489E+04   -0.25187E-05   -0.30034E-05  3461   0.705E-03    0.145E-02
RMM:   8    -0.116945779644E+04   -0.15561E-05   -0.18211E-05  3378   0.670E-03
  22 F= -.11694578E+04 E0= -.11694578E+04  d E =-.176747E-02  mag=    10.0000
       N       E                     dE             d eps       ncg     rms          rms(c)
DAV:   1    -0.116945779442E+04    0.46493E-06   -0.83666E-03  6784   0.107E-01    0.252E-02
RMM:   2    -0.116945781073E+04   -0.16310E-04   -0.19494E-04  3737   0.193E-02    0.206E-02
RMM:   3    -0.116945781242E+04   -0.16897E-05   -0.17273E-05  3304   0.806E-03    0.108E-02
RMM:   4    -0.116945781205E+04    0.36751E-06   -0.42792E-06  2684   0.331E-03    0.779E-03
RMM:   5    -0.116945781173E+04    0.32132E-06   -0.15571E-06  2015   0.249E-03    0.392E-03
RMM:   6    -0.116945781175E+04   -0.18190E-07   -0.40870E-07   829   0.184E-03    0.119E-03
RMM:   7    -0.116945781175E+04   -0.27358E-08   -0.19577E-07   740   0.182E-03    0.594E-04
RMM:   8    -0.116945781175E+04    0.43656E-09   -0.35805E-08   599   0.174E-03
  23 F= -.11694578E+04 E0= -.11694578E+04  d E =-.178278E-02  mag=    10.0000
       N       E                     dE             d eps       ncg     rms          rms(c)
DAV:   1    -0.116945660523E+04    0.12065E-02   -0.88068E-01  6400   0.110E+00    0.310E-01
RMM:   2    -0.116945894692E+04   -0.23417E-02   -0.22408E-02  6207   0.192E-01    0.203E-01
RMM:   3    -0.116945904033E+04   -0.93405E-04   -0.11657E-03  5990   0.632E-02    0.122E-01
RMM:   4    -0.116945896090E+04    0.79425E-04   -0.31674E-04  4383   0.206E-02    0.566E-02
RMM:   5    -0.116945895288E+04    0.80196E-05   -0.81322E-05  3571   0.130E-02    0.210E-02
RMM:   6    -0.116945895593E+04   -0.30481E-05   -0.27563E-05  3481   0.837E-03    0.205E-02
RMM:   7    -0.116945895758E+04   -0.16454E-05   -0.16095E-05  3291   0.547E-03    0.945E-03
RMM:   8    -0.116945895854E+04   -0.96388E-06   -0.96277E-06  3153   0.495E-03
  24 F= -.11694590E+04 E0= -.11694590E+04  d E =-.114679E-02  mag=    10.0000
       N       E                     dE             d eps       ncg     rms          rms(c)
DAV:   1    -0.116945892418E+04    0.33401E-04   -0.20926E-02  6544   0.170E-01    0.478E-02
RMM:   2    -0.116945898111E+04   -0.56932E-04   -0.54308E-04  5062   0.304E-02    0.328E-02
RMM:   3    -0.116945898419E+04   -0.30817E-05   -0.31995E-05  3456   0.109E-02    0.196E-02
RMM:   4    -0.116945898338E+04    0.81281E-06   -0.12417E-05  3341   0.468E-03    0.130E-02
RMM:   5    -0.116945898324E+04    0.14013E-06   -0.46588E-06  2624   0.337E-03    0.645E-03
RMM:   6    -0.116945898347E+04   -0.23216E-06   -0.23320E-06  1811   0.253E-03    0.186E-03
RMM:   7    -0.116945898357E+04   -0.10181E-06   -0.10836E-06  1478   0.236E-03    0.134E-03
RMM:   8    -0.116945898361E+04   -0.40760E-07   -0.46909E-07  1024   0.203E-03
  25 F= -.11694590E+04 E0= -.11694590E+04  d E =-.117186E-02  mag=    10.0000
       N       E                     dE             d eps       ncg     rms          rms(c)
DAV:   1    -0.116945730612E+04    0.16775E-02   -0.72535E-01  6360   0.982E-01    0.311E-01
RMM:   2    -0.116945942202E+04   -0.21159E-02   -0.18335E-02  6195   0.173E-01    0.193E-01
RMM:   3    -0.116945954288E+04   -0.12086E-03   -0.98158E-04  5799   0.571E-02    0.110E-01
RMM:   4    -0.116945946396E+04    0.78916E-04   -0.28997E-04  4274   0.194E-02    0.508E-02
RMM:   5    -0.116945945471E+04    0.92554E-05   -0.72138E-05  3566   0.120E-02    0.170E-02
RMM:   6    -0.116945945751E+04   -0.28015E-05   -0.24903E-05  3473   0.747E-03    0.123E-02
RMM:   7    -0.116945945877E+04   -0.12591E-05   -0.13075E-05  3253   0.525E-03    0.846E-03
RMM:   8    -0.116945945954E+04   -0.77051E-06   -0.82458E-06  3054   0.425E-03
  26 F= -.11694595E+04 E0= -.11694595E+04  d E =-.475926E-03  mag=    10.0000
       N       E                     dE             d eps       ncg     rms          rms(c)
DAV:   1    -0.116945940649E+04    0.52275E-04   -0.34669E-02  6096   0.215E-01    0.685E-02
RMM:   2    -0.116945950480E+04   -0.98306E-04   -0.85396E-04  5822   0.380E-02    0.422E-02
RMM:   3    -0.116945951043E+04   -0.56360E-05   -0.37531E-05  3352   0.131E-02    0.237E-02
RMM:   4    -0.116945950709E+04    0.33392E-05   -0.14181E-05  3180   0.500E-03    0.121E-02
RMM:   5    -0.116945950673E+04    0.36608E-06   -0.28274E-06  2227   0.287E-03    0.775E-03
RMM:   6    -0.116945950674E+04   -0.82655E-08   -0.72300E-07  1306   0.203E-03    0.213E-03
RMM:   7    -0.116945950675E+04   -0.13126E-07   -0.20122E-07   876   0.188E-03    0.123E-03
RMM:   8    -0.116945950674E+04    0.61991E-08   -0.33816E-08   589   0.181E-03
  27 F= -.11694595E+04 E0= -.11694595E+04  d E =-.523131E-03  mag=    10.0000
       N       E                     dE             d eps       ncg     rms          rms(c)
DAV:   1    -0.116945893780E+04    0.56895E-03   -0.44479E-01  6400   0.773E-01    0.178E-01
RMM:   2    -0.116946000715E+04   -0.10694E-02   -0.11110E-02  6172   0.135E-01    0.121E-01
RMM:   3    -0.116946002616E+04   -0.19009E-04   -0.55207E-04  4893   0.437E-02    0.732E-02
RMM:   4    -0.116945999029E+04    0.35873E-04   -0.13109E-04  3560   0.143E-02    0.376E-02
RMM:   5    -0.116945998695E+04    0.33415E-05   -0.46651E-05  3473   0.930E-03    0.306E-02
RMM:   6    -0.116945998855E+04   -0.16032E-05   -0.16969E-05  3367   0.650E-03    0.125E-02
RMM:   7    -0.116945998943E+04   -0.87680E-06   -0.84868E-06  3014   0.396E-03    0.738E-03
RMM:   8    -0.116945998986E+04   -0.42755E-06   -0.46811E-06  2616   0.361E-03
  28 F= -.11694600E+04 E0= -.11694600E+04  d E =-.483112E-03  mag=    10.0000
