       N       E                     dE             d eps       ncg     rms          rms(c)
DAV:   1     0.119087393446E+05    0.11909E+05   -0.42102E+05 12352   0.131E+03
DAV:   2     0.655803702766E+03   -0.11253E+05   -0.10052E+05 12296   0.375E+02
DAV:   3    -0.135861930177E+04   -0.20144E+04   -0.19406E+04 13176   0.165E+02
DAV:   4    -0.149390953409E+04   -0.13529E+03   -0.13288E+03 16200   0.446E+01
DAV:   5    -0.150250784246E+04   -0.85983E+01   -0.85547E+01 22232   0.102E+01    0.183E+02
RMM:   6    -0.116383101873E+04    0.33868E+03   -0.15988E+03 12508   0.349E+01    0.106E+02
RMM:   7    -0.114906114127E+04    0.14770E+02   -0.64806E+01 12805   0.112E+01    0.653E+01
RMM:   8    -0.115280888951E+04   -0.37477E+01   -0.20427E+01 14157   0.540E+00    0.315E+01
RMM:   9    -0.115632425748E+04   -0.35154E+01   -0.48926E+00 14452   0.237E+00    0.880E+00
RMM:  10    -0.115780921504E+04   -0.14850E+01   -0.16531E+00 14526   0.125E+00    0.619E+00
RMM:  11    -0.115872760683E+04   -0.91839E+00   -0.11935E+00 14840   0.982E-01    0.473E+00
RMM:  12    -0.115943406602E+04   -0.70646E+00   -0.65154E-01 13581   0.750E-01    0.227E+00
RMM:  13    -0.115957160144E+04   -0.13754E+00   -0.18269E-01 15017   0.443E-01    0.156E+00
RMM:  14    -0.115963890337E+04   -0.67302E-01   -0.11026E-01 14806   0.292E-01    0.972E-01
RMM:  15    -0.115966325541E+04   -0.24352E-01   -0.52531E-02 14509   0.211E-01    0.466E-01
RMM:  16    -0.115966712141E+04   -0.38660E-02   -0.14421E-02 15611   0.115E-01    0.228E-01
RMM:  17    -0.115966805955E+04   -0.93814E-03   -0.37986E-03 16198   0.522E-02    0.159E-01
RMM:  18    -0.115966869878E+04   -0.63923E-03   -0.23861E-03 14113   0.405E-02    0.866E-02
RMM:  19    -0.115966894909E+04   -0.25031E-03   -0.81807E-04 10883   0.255E-02    0.559E-02
RMM:  20    -0.115966911912E+04   -0.17003E-03   -0.48770E-04  9937   0.174E-02    0.437E-02
RMM:  21    -0.115966927587E+04   -0.15675E-03   -0.32265E-04  9598   0.157E-02    0.374E-02
RMM:  22    -0.115966945351E+04   -0.17764E-03   -0.26934E-04  9369   0.147E-02    0.318E-02
RMM:  23    -0.115966964697E+04   -0.19346E-03   -0.27991E-04  9286   0.153E-02    0.288E-02
RMM:  24    -0.115966979890E+04   -0.15193E-03   -0.23217E-04  9041   0.136E-02    0.243E-02
RMM:  25    -0.115967002159E+04   -0.22269E-03   -0.54123E-04  9154   0.211E-02    0.195E-02
RMM:  26    -0.115967017579E+04   -0.15421E-03   -0.57707E-04  9209   0.215E-02    0.148E-02
RMM:  27    -0.115967025382E+04   -0.78029E-04   -0.25587E-04  8397   0.135E-02
   1 F= -.11596703E+04 E0= -.11596625E+04  d E =-.115967E+04  mag=     5.9938
       N       E                     dE             d eps       ncg     rms          rms(c)
DAV:   1    -0.113632011399E+04    0.23350E+02   -0.21373E+03 12712   0.442E+01    0.383E+01
RMM:   2    -0.114990097849E+04   -0.13581E+02   -0.16045E+02 12339   0.107E+01    0.207E+01
RMM:   3    -0.115033527563E+04   -0.43430E+00   -0.11038E+01 12922   0.387E+00    0.136E+01
RMM:   4    -0.115062557840E+04   -0.29030E+00   -0.63712E+00 15186   0.176E+00    0.957E+00
RMM:   5    -0.115008193667E+04    0.54364E+00   -0.17424E+00 14890   0.899E-01    0.383E+00
RMM:   6    -0.115000969812E+04    0.72239E-01   -0.39163E-01 15481   0.429E-01    0.264E+00
RMM:   7    -0.115003809693E+04   -0.28399E-01   -0.16071E-01 16109   0.266E-01    0.196E+00
RMM:   8    -0.115004509652E+04   -0.69996E-02   -0.52782E-02 17096   0.147E-01    0.159E+00
RMM:   9    -0.115004854264E+04   -0.34461E-02   -0.75157E-02 13613   0.196E-01    0.857E-01
RMM:  10    -0.115005056675E+04   -0.20241E-02   -0.26971E-02 14826   0.121E-01    0.429E-01
RMM:  11    -0.115005114979E+04   -0.58304E-03   -0.69649E-03 14725   0.555E-02    0.192E-01
RMM:  12    -0.115005157651E+04   -0.42672E-03   -0.37578E-03 13570   0.375E-02    0.121E-01
RMM:  13    -0.115005185572E+04   -0.27920E-03   -0.17619E-03 11266   0.240E-02    0.795E-02
RMM:  14    -0.115005205145E+04   -0.19573E-03   -0.10412E-03 10005   0.177E-02    0.573E-02
RMM:  15    -0.115005222713E+04   -0.17569E-03   -0.65076E-04  9617   0.164E-02    0.408E-02
RMM:  16    -0.115005234947E+04   -0.12233E-03   -0.41403E-04  9041   0.126E-02    0.336E-02
RMM:  17    -0.115005242991E+04   -0.80443E-04   -0.26063E-04  8585   0.104E-02
   2 F= -.11500524E+04 E0= -.11500423E+04  d E =0.961782E+01  mag=     5.9527
       N       E                     dE             d eps       ncg     rms          rms(c)
DAV:   1    -0.114383532890E+04    0.62170E+01   -0.17232E+03 12336   0.337E+01    0.329E+01
RMM:   2    -0.115922614448E+04   -0.15391E+02   -0.16983E+02 12292   0.940E+00    0.303E+01
RMM:   3    -0.115875413715E+04    0.47201E+00   -0.11970E+01 13161   0.276E+00    0.229E+01
RMM:   4    -0.115642071941E+04    0.23334E+01   -0.74189E+00 12791   0.211E+00    0.154E+01
RMM:   5    -0.115687843700E+04   -0.45772E+00   -0.36625E+00 13798   0.162E+00    0.817E+00
RMM:   6    -0.115645198701E+04    0.42645E+00   -0.13900E+00 13205   0.769E-01    0.491E+00
RMM:   7    -0.115621666561E+04    0.23532E+00   -0.37205E-01 13591   0.537E-01    0.258E+00
RMM:   8    -0.115623198995E+04   -0.15324E-01   -0.15597E-01 13499   0.329E-01    0.327E+00
RMM:   9    -0.115631108901E+04   -0.79099E-01   -0.26624E-02 13540   0.165E-01    0.309E+00
RMM:  10    -0.115635741869E+04   -0.46330E-01   -0.13550E-02 13573   0.107E-01    0.295E+00
RMM:  11    -0.115638604847E+04   -0.28630E-01   -0.31052E-02 12133   0.156E-01    0.235E+00
RMM:  12    -0.115641279338E+04   -0.26745E-01   -0.44061E-02 12461   0.187E-01    0.161E+00
RMM:  13    -0.115641940260E+04   -0.66092E-02   -0.45140E-02 12947   0.180E-01    0.100E+00
RMM:  14    -0.115641869693E+04    0.70567E-03   -0.12393E-02 13511   0.944E-02    0.811E-01
RMM:  15    -0.115642001029E+04   -0.13134E-02   -0.94826E-03 12713   0.782E-02    0.542E-01
RMM:  16    -0.115642227615E+04   -0.22659E-02   -0.57844E-03 12234   0.660E-02    0.378E-01
RMM:  17    -0.115642353528E+04   -0.12591E-02   -0.31122E-03 11976   0.448E-02    0.271E-01
RMM:  18    -0.115642477498E+04   -0.12397E-02   -0.42785E-03 11717   0.567E-02    0.113E-01
RMM:  19    -0.115642508112E+04   -0.30614E-03   -0.12618E-03 10603   0.298E-02    0.780E-02
RMM:  20    -0.115642531642E+04   -0.23531E-03   -0.56116E-04  9229   0.199E-02    0.583E-02
RMM:  21    -0.115642555402E+04   -0.23760E-03   -0.40913E-04  8757   0.190E-02    0.474E-02
RMM:  22    -0.115642578099E+04   -0.22697E-03   -0.38674E-04  8708   0.180E-02    0.411E-02
RMM:  23    -0.115642600582E+04   -0.22484E-03   -0.39239E-04  8739   0.191E-02    0.374E-02
RMM:  24    -0.115642631760E+04   -0.31178E-03   -0.84858E-04  9621   0.262E-02    0.361E-02
RMM:  25    -0.115642664084E+04   -0.32324E-03   -0.13169E-03 10188   0.331E-02    0.365E-02
RMM:  26    -0.115642673170E+04   -0.90860E-04   -0.29261E-04  8218   0.166E-02
   3 F= -.11564267E+04 E0= -.11564242E+04  d E =-.637430E+01  mag=     5.9784
       N       E                     dE             d eps       ncg     rms          rms(c)
DAV:   1    -0.115639037624E+04    0.36265E-01   -0.70320E+02 12368   0.258E+01    0.995E+00
RMM:   2    -0.115947881450E+04   -0.30884E+01   -0.36585E+01 12288   0.684E+00    0.126E+01
RMM:   3    -0.115924818698E+04    0.23063E+00   -0.17483E+00 13265   0.157E+00    0.984E+00
RMM:   4    -0.115908870497E+04    0.15948E+00   -0.44902E-01 13459   0.680E-01    0.634E+00
RMM:   5    -0.115907563258E+04    0.13072E-01   -0.50454E-01 12506   0.592E-01    0.505E+00
RMM:   6    -0.115908071932E+04   -0.50867E-02   -0.23397E-01 12350   0.480E-01    0.289E+00
RMM:   7    -0.115902556382E+04    0.55155E-01   -0.97938E-02 13005   0.313E-01    0.121E+00
RMM:   8    -0.115902122879E+04    0.43350E-02   -0.24367E-02 13339   0.140E-01    0.600E-01
RMM:   9    -0.115902160221E+04   -0.37342E-03   -0.48666E-03 12363   0.669E-02    0.370E-01
RMM:  10    -0.115902452048E+04   -0.29183E-02   -0.31107E-03 11720   0.573E-02    0.277E-01
RMM:  11    -0.115902603233E+04   -0.15119E-02   -0.18282E-03 11466   0.423E-02    0.166E-01
RMM:  12    -0.115902715731E+04   -0.11250E-02   -0.91720E-04 10520   0.300E-02    0.112E-01
RMM:  13    -0.115902843595E+04   -0.12786E-02   -0.83648E-04 10191   0.305E-02    0.113E-01
RMM:  14    -0.115902948761E+04   -0.10517E-02   -0.95790E-04  9849   0.318E-02    0.116E-01
RMM:  15    -0.115902981109E+04   -0.32348E-03   -0.40303E-04  8944   0.213E-02    0.787E-02
RMM:  16    -0.115903013701E+04   -0.32592E-03   -0.54303E-04  9330   0.233E-02    0.410E-02
RMM:  17    -0.115903022250E+04   -0.85491E-04   -0.20814E-04  8097   0.158E-02
   4 F= -.11590302E+04 E0= -.11590216E+04  d E =-.260349E+01  mag=     5.9646
       N       E                     dE             d eps       ncg     rms          rms(c)
DAV:   1    -0.115998773828E+04   -0.95760E+00   -0.97062E+01 12888   0.972E+00    0.381E+00
RMM:   2    -0.116016561092E+04   -0.17787E+00   -0.31531E+00 12290   0.191E+00    0.290E+00
RMM:   3    -0.116013408958E+04    0.31521E-01   -0.17692E-01 12701   0.558E-01    0.184E+00
RMM:   4    -0.116011229656E+04    0.21793E-01   -0.12170E-01 12866   0.337E-01    0.110E+00
RMM:   5    -0.116010832068E+04    0.39759E-02   -0.22255E-02 12563   0.184E-01    0.540E-01
RMM:   6    -0.116010910625E+04   -0.78558E-03   -0.12233E-02 14093   0.871E-02    0.369E-01
RMM:   7    -0.116010978881E+04   -0.68256E-03   -0.20588E-03 12051   0.411E-02    0.248E-01
RMM:   8    -0.116011104752E+04   -0.12587E-02   -0.13392E-03 11283   0.359E-02    0.140E-01
RMM:   9    -0.116011177059E+04   -0.72308E-03   -0.55805E-04 10103   0.260E-02    0.988E-02
RMM:  10    -0.116011219409E+04   -0.42350E-03   -0.20429E-04  8572   0.169E-02    0.848E-02
RMM:  11    -0.116011284917E+04   -0.65508E-03   -0.43466E-04  9221   0.216E-02    0.640E-02
RMM:  12    -0.116011347426E+04   -0.62509E-03   -0.82768E-04 10122   0.298E-02    0.407E-02
RMM:  13    -0.116011363258E+04   -0.15833E-03   -0.24414E-04  8486   0.180E-02    0.333E-02
RMM:  14    -0.116011371371E+04   -0.81125E-04   -0.13096E-04  7847   0.123E-02
   5 F= -.11601137E+04 E0= -.11601080E+04  d E =-.108349E+01  mag=     5.8475
       N       E                     dE             d eps       ncg     rms          rms(c)
DAV:   1    -0.116069672680E+04   -0.58309E+00   -0.74552E+01 12384   0.809E+00    0.309E+00
RMM:   2    -0.116087393330E+04   -0.17721E+00   -0.19961E+00 12295   0.151E+00    0.242E+00
RMM:   3    -0.116086927985E+04    0.46535E-02   -0.11882E-01 12669   0.484E-01    0.137E+00
RMM:   4    -0.116086587966E+04    0.34002E-02   -0.44408E-02 13154   0.196E-01    0.880E-01
RMM:   5    -0.116086700590E+04   -0.11262E-02   -0.12790E-02 13115   0.117E-01    0.437E-01
RMM:   6    -0.116086838106E+04   -0.13752E-02   -0.39842E-03 12396   0.575E-02    0.311E-01
RMM:   7    -0.116086990758E+04   -0.15265E-02   -0.20735E-03 12333   0.389E-02    0.224E-01
RMM:   8    -0.116087198520E+04   -0.20776E-02   -0.12328E-03 10868   0.366E-02    0.159E-01
RMM:   9    -0.116087408013E+04   -0.20949E-02   -0.14194E-03 10896   0.400E-02    0.138E-01
RMM:  10    -0.116087504578E+04   -0.96565E-03   -0.93980E-04 10629   0.307E-02    0.971E-02
RMM:  11    -0.116087641085E+04   -0.13651E-02   -0.16672E-03 10946   0.429E-02    0.597E-02
RMM:  12    -0.116087690415E+04   -0.49330E-03   -0.83257E-04 10237   0.314E-02    0.372E-02
RMM:  13    -0.116087705073E+04   -0.14658E-03   -0.23211E-04  8532   0.170E-02    0.370E-02
RMM:  14    -0.116087714584E+04   -0.95111E-04   -0.18332E-04  8393   0.144E-02
   6 F= -.11608771E+04 E0= -.11608751E+04  d E =-.763432E+00  mag=     5.9714
       N       E                     dE             d eps       ncg     rms          rms(c)
DAV:   1    -0.116143932062E+04   -0.56227E+00   -0.74719E+01 12424   0.778E+00    0.303E+00
RMM:   2    -0.116164948621E+04   -0.21017E+00   -0.19784E+00 12293   0.140E+00    0.249E+00
RMM:   3    -0.116163969586E+04    0.97903E-02   -0.13915E-01 12720   0.464E-01    0.138E+00
RMM:   4    -0.116163929563E+04    0.40023E-03   -0.50964E-02 13634   0.203E-01    0.741E-01
RMM:   5    -0.116164068140E+04   -0.13858E-02   -0.13121E-02 13413   0.112E-01    0.343E-01
RMM:   6    -0.116164239952E+04   -0.17181E-02   -0.26345E-03 13235   0.494E-02    0.226E-01
RMM:   7    -0.116164321655E+04   -0.81703E-03   -0.13078E-03 12511   0.318E-02    0.151E-01
RMM:   8    -0.116164386451E+04   -0.64795E-03   -0.10575E-03 11586   0.310E-02    0.621E-02
RMM:   9    -0.116164394876E+04   -0.84248E-04   -0.23434E-04  8773   0.166E-02
   7 F= -.11616439E+04 E0= -.11616398E+04  d E =-.766803E+00  mag=     5.9409
       N       E                     dE             d eps       ncg     rms          rms(c)
DAV:   1    -0.116186049925E+04   -0.21663E+00   -0.11201E+01 13056   0.325E+00    0.122E+00
RMM:   2    -0.116189040799E+04   -0.29909E-01   -0.28634E-01 12297   0.579E-01    0.107E+00
RMM:   3    -0.116188800817E+04    0.23998E-02   -0.17444E-02 12890   0.162E-01    0.591E-01
RMM:   4    -0.116188778001E+04    0.22816E-03   -0.74136E-03 12898   0.813E-02    0.318E-01
RMM:   5    -0.116188756120E+04    0.21881E-03   -0.21374E-03 11688   0.477E-02    0.114E-01
RMM:   6    -0.116188764427E+04   -0.83072E-04   -0.24469E-04  8767   0.181E-02    0.727E-02
RMM:   7    -0.116188769859E+04   -0.54318E-04   -0.11334E-04  8201   0.117E-02    0.457E-02
RMM:   8    -0.116188773757E+04   -0.38977E-04   -0.79800E-05  7862   0.114E-02
   8 F= -.11618877E+04 E0= -.11618812E+04  d E =-.243789E+00  mag=     5.8878
       N       E                     dE             d eps       ncg     rms          rms(c)
DAV:   1    -0.116216452661E+04   -0.27683E+00   -0.87280E+01 12632   0.916E+00    0.327E+00
RMM:   2    -0.116240295492E+04   -0.23843E+00   -0.26700E+00 12288   0.177E+00    0.317E+00
RMM:   3    -0.116238289805E+04    0.20057E-01   -0.14606E-01 13824   0.469E-01    0.199E+00
RMM:   4    -0.116237519079E+04    0.77073E-02   -0.59436E-02 13187   0.225E-01    0.957E-01
RMM:   5    -0.116237025696E+04    0.49338E-02   -0.13811E-02 13868   0.120E-01    0.253E-01
RMM:   6    -0.116237042186E+04   -0.16490E-03   -0.19855E-03 14118   0.414E-02    0.164E-01
RMM:   7    -0.116237052789E+04   -0.10603E-03   -0.73196E-04 12361   0.231E-02    0.104E-01
RMM:   8    -0.116237060477E+04   -0.76885E-04   -0.36058E-04 10020   0.199E-02
   9 F= -.11623706E+04 E0= -.11623598E+04  d E =-.482867E+00  mag=     5.7677
       N       E                     dE             d eps       ncg     rms          rms(c)
DAV:   1    -0.116245965963E+04   -0.89132E-01   -0.23439E+01 12784   0.495E+00    0.192E+00
RMM:   2    -0.116251887161E+04   -0.59212E-01   -0.72031E-01 12288   0.962E-01    0.176E+00
RMM:   3    -0.116251411065E+04    0.47610E-02   -0.42256E-02 13437   0.274E-01    0.116E+00
RMM:   4    -0.116251170352E+04    0.24071E-02   -0.20735E-02 13424   0.136E-01    0.553E-01
RMM:   5    -0.116251014534E+04    0.15582E-02   -0.44362E-03 13625   0.701E-02    0.169E-01
RMM:   6    -0.116251017601E+04   -0.30662E-04   -0.84583E-04 12370   0.248E-02    0.982E-02
RMM:   7    -0.116251021120E+04   -0.35195E-04   -0.26754E-04  9540   0.167E-02    0.635E-02
RMM:   8    -0.116251025249E+04   -0.41289E-04   -0.14033E-04  8271   0.130E-02
  10 F= -.11625103E+04 E0= -.11624984E+04  d E =-.139648E+00  mag=     5.6239
       N       E                     dE             d eps       ncg     rms          rms(c)
DAV:   1    -0.116250907770E+04    0.11335E-02   -0.15451E+01 12704   0.445E+00    0.147E+00
RMM:   2    -0.116255331510E+04   -0.44237E-01   -0.43710E-01 12290   0.842E-01    0.115E+00
RMM:   3    -0.116255376984E+04   -0.45474E-03   -0.24253E-02 13117   0.264E-01    0.727E-01
RMM:   4    -0.116255280748E+04    0.96236E-03   -0.94698E-03 14285   0.102E-01    0.376E-01
RMM:   5    -0.116255241968E+04    0.38780E-03   -0.27811E-03 14036   0.534E-02    0.125E-01
RMM:   6    -0.116255243348E+04   -0.13794E-04   -0.38008E-04 10153   0.208E-02    0.736E-02
RMM:   7    -0.116255248278E+04   -0.49300E-04   -0.17927E-04  8684   0.150E-02    0.578E-02
RMM:   8    -0.116255252743E+04   -0.44657E-04   -0.10632E-04  7847   0.134E-02
  11 F= -.11625525E+04 E0= -.11625405E+04  d E =-.422749E-01  mag=     5.4182
       N       E                     dE             d eps       ncg     rms          rms(c)
DAV:   1    -0.116254738974E+04    0.50930E-02   -0.58289E+00 12936   0.262E+00    0.889E-01
RMM:   2    -0.116256133764E+04   -0.13948E-01   -0.18086E-01 12298   0.498E-01    0.104E+00
RMM:   3    -0.116255991110E+04    0.14265E-02   -0.80383E-03 13439   0.125E-01    0.825E-01
RMM:   4    -0.116255986016E+04    0.50943E-04   -0.45342E-03 12193   0.659E-02    0.460E-01
RMM:   5    -0.116255876362E+04    0.10965E-02   -0.20176E-03 11727   0.453E-02    0.944E-02
RMM:   6    -0.116255873503E+04    0.28594E-04   -0.20391E-04  8764   0.186E-02    0.745E-02
RMM:   7    -0.116255874158E+04   -0.65458E-05   -0.76983E-05  7946   0.103E-02    0.537E-02
RMM:   8    -0.116255878994E+04   -0.48368E-04   -0.98572E-05  7701   0.120E-02
  12 F= -.11625588E+04 E0= -.11625471E+04  d E =-.626251E-02  mag=     5.2123
       N       E                     dE             d eps       ncg     rms          rms(c)
DAV:   1    -0.116253054817E+04    0.28193E-01   -0.20702E+01 12640   0.508E+00    0.167E+00
RMM:   2    -0.116258762704E+04   -0.57079E-01   -0.62375E-01 12298   0.971E-01    0.171E+00
RMM:   3    -0.116258524386E+04    0.23832E-02   -0.33315E-02 13373   0.290E-01    0.123E+00
RMM:   4    -0.116258477185E+04    0.47200E-03   -0.13593E-02 14037   0.120E-01    0.659E-01
RMM:   5    -0.116258383271E+04    0.93914E-03   -0.52797E-03 13502   0.742E-02    0.200E-01
RMM:   6    -0.116258394955E+04   -0.11684E-03   -0.77931E-04 12141   0.299E-02    0.131E-01
RMM:   7    -0.116258414216E+04   -0.19261E-03   -0.29313E-04  9604   0.180E-02    0.114E-01
RMM:   8    -0.116258460569E+04   -0.46353E-03   -0.26575E-04  9324   0.187E-02    0.105E-01
RMM:   9    -0.116258496345E+04   -0.35776E-03   -0.14437E-04  8330   0.154E-02    0.108E-01
RMM:  10    -0.116258448729E+04    0.47616E-03   -0.13418E-04  8315   0.171E-02    0.104E-01
RMM:  11    -0.116258358601E+04    0.90128E-03   -0.68395E-04 10513   0.283E-02    0.931E-02
RMM:  12    -0.116258206249E+04    0.15235E-02   -0.19100E-03 11360   0.477E-02    0.142E-01
RMM:  13    -0.116258310798E+04   -0.10455E-02   -0.31535E-04  9621   0.239E-02    0.115E-01
RMM:  14    -0.116258474647E+04   -0.16385E-02   -0.20931E-03 11584   0.505E-02    0.119E-01
RMM:  15    -0.116258602213E+04   -0.12757E-02   -0.96266E-04 10621   0.354E-02    0.161E-01
RMM:  16    -0.116258392793E+04    0.20942E-02   -0.16200E-03 11160   0.473E-02    0.117E-01
RMM:  17    -0.116258113851E+04    0.27894E-02   -0.49453E-03 12047   0.774E-02    0.257E-01
RMM:  18    -0.116258088781E+04    0.25070E-03   -0.35775E-04 10027   0.242E-02    0.273E-01
RMM:  19    -0.116258078700E+04    0.10081E-03   -0.72924E-05  7951   0.987E-03    0.278E-01
RMM:  20    -0.116258082196E+04   -0.34967E-04   -0.22368E-05  6531   0.713E-03
  13 F= -.11625808E+04 E0= -.11625702E+04  d E =-.220320E-01  mag=     5.3415
       N       E                     dE             d eps       ncg     rms          rms(c)
DAV:   1    -0.116257840699E+04    0.23800E-02   -0.57656E+00 12768   0.276E+00    0.671E-01
RMM:   2    -0.116259409206E+04   -0.15685E-01   -0.14743E-01 12327   0.476E-01    0.671E-01
RMM:   3    -0.116259269669E+04    0.13954E-02   -0.88485E-03 12420   0.167E-01    0.367E-01
RMM:   4    -0.116259300108E+04   -0.30440E-03   -0.20919E-03 14397   0.513E-02    0.262E-01
RMM:   5    -0.116259322159E+04   -0.22051E-03   -0.14177E-03 12279   0.369E-02    0.110E-01
RMM:   6    -0.116259349847E+04   -0.27688E-03   -0.30029E-04  9727   0.229E-02    0.798E-02
RMM:   7    -0.116259361668E+04   -0.11821E-03   -0.92735E-05  7908   0.122E-02    0.748E-02
RMM:   8    -0.116259378086E+04   -0.16418E-03   -0.72025E-05  7757   0.119E-02    0.732E-02
RMM:   9    -0.116259416218E+04   -0.38132E-03   -0.20024E-04  8818   0.161E-02    0.738E-02
RMM:  10    -0.116259419626E+04   -0.34080E-04   -0.38596E-05  7058   0.903E-03
  14 F= -.11625942E+04 E0= -.11625835E+04  d E =-.133743E-01  mag=     4.9410
       N       E                     dE             d eps       ncg     rms          rms(c)
DAV:   1    -0.116260158847E+04   -0.74263E-02   -0.72763E+00 12672   0.294E+00    0.101E+00
RMM:   2    -0.116261871611E+04   -0.17128E-01   -0.23214E-01 12289   0.570E-01    0.125E+00
RMM:   3    -0.116261728804E+04    0.14281E-02   -0.10480E-02 13837   0.137E-01    0.104E+00
RMM:   4    -0.116261797338E+04   -0.68533E-03   -0.54686E-03 12418   0.721E-02    0.638E-01
RMM:   5    -0.116261708444E+04    0.88893E-03   -0.35576E-03 12137   0.589E-02    0.169E-01
RMM:   6    -0.116261733195E+04   -0.24751E-03   -0.48043E-04 10413   0.266E-02    0.153E-01
RMM:   7    -0.116261770229E+04   -0.37034E-03   -0.20613E-04  8813   0.160E-02    0.135E-01
RMM:   8    -0.116261848685E+04   -0.78456E-03   -0.42711E-04 10341   0.218E-02    0.119E-01
RMM:   9    -0.116261905185E+04   -0.56499E-03   -0.25787E-04  9333   0.192E-02    0.109E-01
RMM:  10    -0.116262028186E+04   -0.12300E-02   -0.16020E-03 11383   0.420E-02    0.718E-02
RMM:  11    -0.116262050804E+04   -0.22618E-03   -0.63705E-04 10515   0.297E-02    0.470E-02
RMM:  12    -0.116262045119E+04    0.56847E-04   -0.15862E-04  8493   0.167E-02
  15 F= -.11626205E+04 E0= -.11626114E+04  d E =-.262549E-01  mag=     4.1577
       N       E                     dE             d eps       ncg     rms          rms(c)
DAV:   1    -0.116262460134E+04   -0.40933E-02   -0.28394E+00 12864   0.195E+00    0.443E-01
RMM:   2    -0.116263143547E+04   -0.68341E-02   -0.76257E-02 12289   0.349E-01    0.415E-01
RMM:   3    -0.116263127888E+04    0.15658E-03   -0.37443E-03 12749   0.109E-01    0.277E-01
RMM:   4    -0.116263125832E+04    0.20562E-04   -0.12127E-03 12394   0.376E-02    0.195E-01
RMM:   5    -0.116263111121E+04    0.14711E-03   -0.60650E-04 10909   0.261E-02    0.648E-02
RMM:   6    -0.116263109892E+04    0.12296E-04   -0.95860E-05  8244   0.149E-02    0.355E-02
RMM:   7    -0.116263111719E+04   -0.18276E-04   -0.35641E-05  7112   0.825E-03    0.270E-02
RMM:   8    -0.116263116566E+04   -0.48462E-04   -0.32415E-05  7064   0.900E-03
  16 F= -.11626312E+04 E0= -.11626222E+04  d E =-.107145E-01  mag=     4.1631
       N       E                     dE             d eps       ncg     rms          rms(c)
DAV:   1    -0.116262804281E+04    0.30744E-02   -0.64660E+00 12640   0.294E+00    0.543E-01
RMM:   2    -0.116264286673E+04   -0.14824E-01   -0.15865E-01 12364   0.492E-01    0.368E-01
RMM:   3    -0.116264287948E+04   -0.12748E-04   -0.78946E-03 12515   0.171E-01    0.241E-01
RMM:   4    -0.116264269733E+04    0.18215E-03   -0.21727E-03 15163   0.515E-02    0.163E-01
RMM:   5    -0.116264269207E+04    0.52545E-05   -0.65969E-04 12318   0.247E-02    0.550E-02
RMM:   6    -0.116264277171E+04   -0.79636E-04   -0.13806E-04  8058   0.161E-02    0.409E-02
RMM:   7    -0.116264282767E+04   -0.55961E-04   -0.78800E-05  7401   0.111E-02    0.400E-02
RMM:   8    -0.116264288284E+04   -0.55165E-04   -0.55039E-05  7205   0.101E-02
  17 F= -.11626429E+04 E0= -.11626343E+04  d E =-.117172E-01  mag=     4.2504
       N       E                     dE             d eps       ncg     rms          rms(c)
DAV:   1    -0.116264142362E+04    0.14041E-02   -0.43770E+00 12720   0.241E+00    0.426E-01
RMM:   2    -0.116265138010E+04   -0.99565E-02   -0.10561E-01 12389   0.397E-01    0.287E-01
RMM:   3    -0.116265138170E+04   -0.15996E-05   -0.52542E-03 12427   0.136E-01    0.185E-01
RMM:   4    -0.116265131153E+04    0.70168E-04   -0.13343E-03 14160   0.404E-02    0.137E-01
RMM:   5    -0.116265129871E+04    0.12823E-04   -0.55186E-04 11859   0.239E-02    0.518E-02
RMM:   6    -0.116265135553E+04   -0.56825E-04   -0.11267E-04  7755   0.149E-02    0.438E-02
RMM:   7    -0.116265138417E+04   -0.28638E-04   -0.63239E-05  7204   0.102E-02    0.404E-02
RMM:   8    -0.116265145193E+04   -0.67758E-04   -0.78634E-05  7594   0.119E-02
  18 F= -.11626515E+04 E0= -.11626427E+04  d E =-.856909E-02  mag=     4.4221
       N       E                     dE             d eps       ncg     rms          rms(c)
DAV:   1    -0.116265222001E+04   -0.83584E-03   -0.24969E+00 12816   0.181E+00    0.312E-01
RMM:   2    -0.116265803767E+04   -0.58177E-02   -0.61088E-02 12376   0.305E-01    0.256E-01
RMM:   3    -0.116265806202E+04   -0.24349E-04   -0.31025E-03 12394   0.103E-01    0.164E-01
RMM:   4    -0.116265812692E+04   -0.64901E-04   -0.83216E-04 13166   0.321E-02    0.134E-01
RMM:   5    -0.116265821543E+04   -0.88512E-04   -0.52963E-04 11067   0.245E-02    0.640E-02
RMM:   6    -0.116265829219E+04   -0.76759E-04   -0.99183E-05  8024   0.147E-02    0.553E-02
RMM:   7    -0.116265838888E+04   -0.96687E-04   -0.11225E-04  8105   0.124E-02    0.447E-02
RMM:   8    -0.116265851352E+04   -0.12464E-03   -0.26950E-04  9352   0.183E-02    0.244E-02
RMM:   9    -0.116265853231E+04   -0.18798E-04   -0.67208E-05  7212   0.111E-02
  19 F= -.11626585E+04 E0= -.11626511E+04  d E =-.708039E-02  mag=     4.6804
       N       E                     dE             d eps       ncg     rms          rms(c)
DAV:   1    -0.116266032001E+04   -0.18065E-02   -0.26889E-01 13008   0.600E-01    0.119E-01
RMM:   2    -0.116266101056E+04   -0.69055E-03   -0.70152E-03 12312   0.107E-01    0.118E-01
RMM:   3    -0.116266101593E+04   -0.53758E-05   -0.34162E-04  9582   0.352E-02    0.764E-02
RMM:   4    -0.116266103816E+04   -0.22229E-04   -0.12375E-04  7399   0.137E-02    0.548E-02
RMM:   5    -0.116266105695E+04   -0.18788E-04   -0.67072E-05  7553   0.106E-02    0.301E-02
RMM:   6    -0.116266107045E+04   -0.13501E-04   -0.27811E-05  6901   0.735E-03    0.216E-02
RMM:   7    -0.116266108369E+04   -0.13243E-04   -0.20047E-05  6818   0.614E-03    0.160E-02
RMM:   8    -0.116266109196E+04   -0.82650E-05   -0.15547E-05  6605   0.532E-03
  20 F= -.11626611E+04 E0= -.11626547E+04  d E =-.255964E-02  mag=     4.7838
       N       E                     dE             d eps       ncg     rms          rms(c)
DAV:   1    -0.116266282856E+04   -0.17449E-02   -0.74413E-01 12896   0.100E+00    0.192E-01
RMM:   2    -0.116266470061E+04   -0.18720E-02   -0.19290E-02 12307   0.176E-01    0.184E-01
RMM:   3    -0.116266469410E+04    0.65090E-05   -0.95478E-04 11742   0.564E-02    0.114E-01
RMM:   4    -0.116266469745E+04   -0.33531E-05   -0.28721E-04  8769   0.195E-02    0.796E-02
RMM:   5    -0.116266469777E+04   -0.31792E-06   -0.12441E-04  8246   0.151E-02    0.277E-02
RMM:   6    -0.116266471087E+04   -0.13103E-04   -0.38341E-05  7044   0.919E-03    0.185E-02
RMM:   7    -0.116266471879E+04   -0.79216E-05   -0.20104E-05  6862   0.660E-03    0.141E-02
RMM:   8    -0.116266472353E+04   -0.47354E-05   -0.12466E-05  6644   0.515E-03
  21 F= -.11626647E+04 E0= -.11626596E+04  d E =-.363157E-02  mag=     4.8689
       N       E                     dE             d eps       ncg     rms          rms(c)
DAV:   1    -0.116265905519E+04    0.56636E-02   -0.55407E+00 12688   0.271E+00    0.477E-01
RMM:   2    -0.116267192227E+04   -0.12867E-01   -0.13590E-01 12320   0.458E-01    0.372E-01
RMM:   3    -0.116267187876E+04    0.43505E-04   -0.66835E-03 12360   0.153E-01    0.230E-01
RMM:   4    -0.116267172488E+04    0.15388E-03   -0.18465E-03 14383   0.465E-02    0.160E-01
RMM:   5    -0.116267164641E+04    0.78476E-04   -0.72413E-04 11968   0.265E-02    0.428E-02
RMM:   6    -0.116267166604E+04   -0.19637E-04   -0.95536E-05  7589   0.151E-02    0.277E-02
RMM:   7    -0.116267167724E+04   -0.11198E-04   -0.53214E-05  7249   0.943E-03    0.213E-02
RMM:   8    -0.116267168418E+04   -0.69342E-05   -0.35453E-05  7076   0.926E-03
  22 F= -.11626717E+04 E0= -.11626679E+04  d E =-.696065E-02  mag=     4.9484
       N       E                     dE             d eps       ncg     rms          rms(c)
DAV:   1    -0.116267110121E+04    0.57603E-03   -0.18879E+00 12768   0.158E+00    0.265E-01
RMM:   2    -0.116267535411E+04   -0.42529E-02   -0.45531E-02 12441   0.261E-01    0.174E-01
RMM:   3    -0.116267532292E+04    0.31197E-04   -0.22471E-03 12383   0.884E-02    0.113E-01
RMM:   4    -0.116267524651E+04    0.76412E-04   -0.58681E-04 11844   0.270E-02    0.683E-02
RMM:   5    -0.116267523568E+04    0.10825E-04   -0.16115E-04  7849   0.161E-02    0.187E-02
RMM:   6    -0.116267524287E+04   -0.71914E-05   -0.46673E-05  7120   0.106E-02    0.117E-02
RMM:   7    -0.116267524686E+04   -0.39870E-05   -0.29810E-05  6951   0.782E-03    0.949E-03
RMM:   8    -0.116267524963E+04   -0.27698E-05   -0.19091E-05  6641   0.640E-03
  23 F= -.11626752E+04 E0= -.11626716E+04  d E =-.356545E-02  mag=     4.9623
       N       E                     dE             d eps       ncg     rms          rms(c)
DAV:   1    -0.116267552582E+04   -0.27896E-03   -0.10837E+00 12808   0.119E+00    0.200E-01
RMM:   2    -0.116267795052E+04   -0.24247E-02   -0.26011E-02 12566   0.198E-01    0.131E-01
RMM:   3    -0.116267793164E+04    0.18889E-04   -0.12808E-03 11780   0.669E-02    0.849E-02
RMM:   4    -0.116267788157E+04    0.50065E-04   -0.32603E-04  8889   0.211E-02    0.486E-02
RMM:   5    -0.116267787712E+04    0.44474E-05   -0.83168E-05  7228   0.135E-02    0.140E-02
RMM:   6    -0.116267788172E+04   -0.45956E-05   -0.32607E-05  6990   0.855E-03    0.893E-03
RMM:   7    -0.116267788404E+04   -0.23247E-05   -0.18816E-05  6741   0.645E-03    0.685E-03
RMM:   8    -0.116267788566E+04   -0.16201E-05   -0.12425E-05  6530   0.517E-03
  24 F= -.11626779E+04 E0= -.11626742E+04  d E =-.263603E-02  mag=     4.9596
       N       E                     dE             d eps       ncg     rms          rms(c)
DAV:   1    -0.116267766223E+04    0.22181E-03   -0.13814E+00 12768   0.134E+00    0.227E-01
RMM:   2    -0.116268074863E+04   -0.30864E-02   -0.32979E-02 12629   0.222E-01    0.145E-01
RMM:   3    -0.116268071639E+04    0.32240E-04   -0.15673E-03 12134   0.723E-02    0.943E-02
RMM:   4    -0.116268064449E+04    0.71898E-04   -0.39118E-04  9667   0.230E-02    0.504E-02
RMM:   5    -0.116268064370E+04    0.78868E-06   -0.92201E-05  7254   0.140E-02    0.144E-02
RMM:   6    -0.116268064858E+04   -0.48727E-05   -0.34739E-05  7023   0.885E-03    0.926E-03
RMM:   7    -0.116268065096E+04   -0.23850E-05   -0.19912E-05  6756   0.661E-03    0.690E-03
RMM:   8    -0.116268065256E+04   -0.16019E-05   -0.12965E-05  6599   0.534E-03
  25 F= -.11626807E+04 E0= -.11626769E+04  d E =-.276690E-02  mag=     4.9560
       N       E                     dE             d eps       ncg     rms          rms(c)
DAV:   1    -0.116268013149E+04    0.51947E-03   -0.13876E+00 12816   0.135E+00    0.227E-01
RMM:   2    -0.116268323975E+04   -0.31083E-02   -0.33048E-02 12598   0.222E-01    0.143E-01
RMM:   3    -0.116268321715E+04    0.22601E-04   -0.15948E-03 12060   0.735E-02    0.929E-02
RMM:   4    -0.116268314672E+04    0.70429E-04   -0.39124E-04  9640   0.230E-02    0.492E-02
RMM:   5    -0.116268314820E+04   -0.14812E-05   -0.90186E-05  7242   0.139E-02    0.148E-02
RMM:   6    -0.116268315325E+04   -0.50504E-05   -0.35370E-05  7010   0.892E-03    0.923E-03
RMM:   7    -0.116268315572E+04   -0.24696E-05   -0.20456E-05  6771   0.673E-03    0.709E-03
RMM:   8    -0.116268315738E+04   -0.16556E-05   -0.13402E-05  6589   0.543E-03
  26 F= -.11626832E+04 E0= -.11626794E+04  d E =-.250481E-02  mag=     4.9551
       N       E                     dE             d eps       ncg     rms          rms(c)
DAV:   1    -0.116268312538E+04    0.30345E-04   -0.81509E-01 12816   0.103E+00    0.175E-01
RMM:   2    -0.116268497752E+04   -0.18521E-02   -0.19529E-02 12663   0.171E-01    0.110E-01
RMM:   3    -0.116268496264E+04    0.14886E-04   -0.90928E-04 10989   0.549E-02    0.714E-02
RMM:   4    -0.116268492077E+04    0.41866E-04   -0.21195E-04  7797   0.180E-02    0.391E-02
RMM:   5    -0.116268492282E+04   -0.20540E-05   -0.60798E-05  7137   0.117E-02    0.160E-02
RMM:   6    -0.116268492640E+04   -0.35809E-05   -0.26521E-05  6909   0.755E-03    0.906E-03
RMM:   7    -0.116268492815E+04   -0.17435E-05   -0.14733E-05  6658   0.592E-03    0.812E-03
RMM:   8    -0.116268492930E+04   -0.11562E-05   -0.98589E-06  6172   0.459E-03
  27 F= -.11626849E+04 E0= -.11626812E+04  d E =-.177193E-02  mag=     4.9547
       N       E                     dE             d eps       ncg     rms          rms(c)
DAV:   1    -0.116268521355E+04   -0.28540E-03   -0.46980E-01 12912   0.784E-01    0.136E-01
RMM:   2    -0.116268629580E+04   -0.10823E-02   -0.11301E-02 12595   0.130E-01    0.853E-02
RMM:   3    -0.116268628614E+04    0.96591E-05   -0.49820E-04  9359   0.415E-02    0.552E-02
RMM:   4    -0.116268626208E+04    0.24058E-04   -0.11269E-04  7227   0.140E-02    0.313E-02
RMM:   5    -0.116268626359E+04   -0.15073E-05   -0.40316E-05  7024   0.936E-03    0.148E-02
RMM:   6    -0.116268626597E+04   -0.23771E-05   -0.17982E-05  6816   0.625E-03    0.800E-03
RMM:   7    -0.116268626712E+04   -0.11570E-05   -0.97856E-06  6327   0.482E-03    0.735E-03
RMM:   8    -0.116268626786E+04   -0.73774E-06   -0.61847E-06  5377   0.381E-03
  28 F= -.11626863E+04 E0= -.11626825E+04  d E =-.133856E-02  mag=     4.9550
