       N       E                     dE             d eps       ncg     rms          rms(c)
DAV:   1    -0.116295666155E+04   -0.11630E+04   -0.65503E-05  9272   0.192E-02    0.274E-02
RMM:   2    -0.116295675659E+04   -0.95045E-04   -0.60105E-05  6365   0.106E-02    0.345E-02
RMM:   3    -0.116295678214E+04   -0.25546E-04   -0.20598E-05  5174   0.461E-03    0.285E-02
RMM:   4    -0.116295673884E+04    0.43294E-04   -0.64218E-06  5068   0.428E-03    0.279E-02
RMM:   5    -0.116295666156E+04    0.77284E-04   -0.15201E-05  4924   0.536E-03    0.301E-02
RMM:   6    -0.116295673357E+04   -0.72005E-04   -0.95230E-06  4637   0.494E-03    0.293E-02
RMM:   7    -0.116295721511E+04   -0.48154E-03   -0.82530E-04  8417   0.336E-02    0.254E-02
RMM:   8    -0.116295767090E+04   -0.45579E-03   -0.10994E-03  8835   0.345E-02    0.263E-02
RMM:   9    -0.116295800828E+04   -0.33738E-03   -0.71842E-04  7998   0.255E-02    0.279E-02
RMM:  10    -0.116295784331E+04    0.16497E-03   -0.97697E-05  6765   0.154E-02    0.320E-02
RMM:  11    -0.116295791087E+04   -0.67560E-04   -0.20819E-05  5499   0.690E-03
   1 F= -.11629579E+04 E0= -.11629555E+04  d E =-.116296E+04  mag=     4.0475
       N       E                     dE             d eps       ncg     rms          rms(c)
DAV:   1    -0.116294126290E+04    0.16580E-01   -0.46524E+00 12688   0.215E+00    0.140E+00
RMM:   2    -0.116297030128E+04   -0.29038E-01   -0.11751E-01 12308   0.432E-01    0.868E-01
RMM:   3    -0.116297407427E+04   -0.37730E-02   -0.66914E-03 12239   0.147E-01    0.391E-01
RMM:   4    -0.116297433641E+04   -0.26213E-03   -0.30887E-03 12621   0.665E-02    0.208E-01
RMM:   5    -0.116297464044E+04   -0.30403E-03   -0.78368E-04 10592   0.328E-02    0.963E-02
RMM:   6    -0.116297489028E+04   -0.24984E-03   -0.18299E-04  8082   0.169E-02    0.688E-02
RMM:   7    -0.116297526664E+04   -0.37636E-03   -0.19963E-04  7811   0.155E-02    0.680E-02
RMM:   8    -0.116297560540E+04   -0.33876E-03   -0.17304E-04  7553   0.135E-02    0.610E-02
RMM:   9    -0.116297595517E+04   -0.34977E-03   -0.16932E-04  7489   0.131E-02    0.626E-02
RMM:  10    -0.116297642044E+04   -0.46527E-03   -0.26160E-04  7567   0.158E-02    0.576E-02
RMM:  11    -0.116297830115E+04   -0.18807E-02   -0.45332E-03 10423   0.753E-02    0.568E-02
RMM:  12    -0.116297967664E+04   -0.13755E-02   -0.35805E-03 10182   0.626E-02    0.523E-02
RMM:  13    -0.116298054076E+04   -0.86412E-03   -0.19344E-03  9687   0.407E-02    0.509E-02
RMM:  14    -0.116298057217E+04   -0.31407E-04   -0.19722E-04  7821   0.151E-02
   2 F= -.11629806E+04 E0= -.11629781E+04  d E =-.226613E-01  mag=     4.0523
       N       E                     dE             d eps       ncg     rms          rms(c)
DAV:   1    -0.116297903110E+04    0.15097E-02   -0.13229E+00 12704   0.111E+00    0.790E-01
RMM:   2    -0.116298822402E+04   -0.91929E-02   -0.31442E-02 12314   0.222E-01    0.471E-01
RMM:   3    -0.116298961807E+04   -0.13940E-02   -0.19586E-03 11743   0.756E-02    0.205E-01
RMM:   4    -0.116298999782E+04   -0.37975E-03   -0.10783E-03 10961   0.378E-02    0.118E-01
RMM:   5    -0.116299033916E+04   -0.34134E-03   -0.34426E-04  8929   0.237E-02    0.668E-02
RMM:   6    -0.116299055512E+04   -0.21596E-03   -0.12821E-04  7458   0.130E-02    0.562E-02
RMM:   7    -0.116299089350E+04   -0.33838E-03   -0.16454E-04  7395   0.132E-02    0.577E-02
RMM:   8    -0.116299118225E+04   -0.28875E-03   -0.14592E-04  7106   0.110E-02    0.524E-02
RMM:   9    -0.116299168915E+04   -0.50690E-03   -0.32008E-04  7705   0.176E-02    0.520E-02
RMM:  10    -0.116299228871E+04   -0.59956E-03   -0.54705E-04  8069   0.220E-02    0.483E-02
RMM:  11    -0.116299401653E+04   -0.17278E-02   -0.64197E-03 10528   0.871E-02    0.458E-02
RMM:  12    -0.116299509114E+04   -0.10746E-02   -0.29045E-03  9815   0.507E-02    0.409E-02
RMM:  13    -0.116299549435E+04   -0.40321E-03   -0.76587E-04  8799   0.241E-02    0.401E-02
RMM:  14    -0.116299539703E+04    0.97323E-04   -0.66704E-05  7108   0.127E-02
   3 F= -.11629954E+04 E0= -.11629929E+04  d E =-.148249E-01  mag=     4.0503
       N       E                     dE             d eps       ncg     rms          rms(c)
DAV:   1    -0.116297932836E+04    0.16166E-01   -0.25906E+00 12712   0.142E+00    0.124E+00
RMM:   2    -0.116300148575E+04   -0.22157E-01   -0.48559E-02 12346   0.268E-01    0.647E-01
RMM:   3    -0.116300536533E+04   -0.38796E-02   -0.33786E-03 12079   0.102E-01    0.236E-01
RMM:   4    -0.116300588904E+04   -0.52371E-03   -0.11754E-03 10737   0.419E-02    0.136E-01
RMM:   5    -0.116300621410E+04   -0.32506E-03   -0.32127E-04  8146   0.225E-02    0.801E-02
RMM:   6    -0.116300646909E+04   -0.25498E-03   -0.14860E-04  7472   0.141E-02    0.557E-02
RMM:   7    -0.116300674148E+04   -0.27239E-03   -0.12935E-04  7320   0.116E-02    0.516E-02
RMM:   8    -0.116300716941E+04   -0.42793E-03   -0.25362E-04  7480   0.161E-02    0.518E-02
RMM:   9    -0.116300768965E+04   -0.52024E-03   -0.43532E-04  7902   0.196E-02    0.465E-02
RMM:  10    -0.116300847173E+04   -0.78208E-03   -0.10778E-03  8635   0.325E-02    0.430E-02
RMM:  11    -0.116300983488E+04   -0.13632E-02   -0.65843E-03 10421   0.865E-02    0.404E-02
RMM:  12    -0.116301051207E+04   -0.67719E-03   -0.14447E-03  9429   0.340E-02    0.339E-02
RMM:  13    -0.116301065790E+04   -0.14582E-03   -0.18237E-04  7579   0.144E-02    0.354E-02
RMM:  14    -0.116301057829E+04    0.79605E-04   -0.39930E-05  6743   0.107E-02
   4 F= -.11630106E+04 E0= -.11630081E+04  d E =-.151813E-01  mag=     4.0509
       N       E                     dE             d eps       ncg     rms          rms(c)
DAV:   1    -0.116298158848E+04    0.29069E-01   -0.37040E+00 12696   0.175E+00    0.144E+00
RMM:   2    -0.116301168279E+04   -0.30094E-01   -0.71515E-02 12450   0.330E-01    0.760E-01
RMM:   3    -0.116301688397E+04   -0.52012E-02   -0.49265E-03 12183   0.123E-01    0.275E-01
RMM:   4    -0.116301730311E+04   -0.41914E-03   -0.14453E-03 11371   0.471E-02    0.150E-01
RMM:   5    -0.116301759796E+04   -0.29485E-03   -0.40658E-04  8657   0.247E-02    0.906E-02
RMM:   6    -0.116301781248E+04   -0.21453E-03   -0.15286E-04  7518   0.154E-02    0.497E-02
RMM:   7    -0.116301802803E+04   -0.21555E-03   -0.11782E-04  7340   0.119E-02    0.467E-02
RMM:   8    -0.116301833005E+04   -0.30202E-03   -0.17292E-04  7312   0.137E-02    0.450E-02
RMM:   9    -0.116301864596E+04   -0.31591E-03   -0.21726E-04  7414   0.134E-02    0.414E-02
RMM:  10    -0.116301924842E+04   -0.60245E-03   -0.73967E-04  8237   0.267E-02    0.372E-02
RMM:  11    -0.116302022256E+04   -0.97415E-03   -0.36492E-03  9715   0.627E-02    0.322E-02
RMM:  12    -0.116302085083E+04   -0.62827E-03   -0.20717E-03  9091   0.418E-02    0.288E-02
RMM:  13    -0.116302106119E+04   -0.21036E-03   -0.43356E-04  8216   0.185E-02    0.272E-02
RMM:  14    -0.116302110131E+04   -0.40117E-04   -0.55879E-05  6639   0.942E-03
   5 F= -.11630211E+04 E0= -.11630186E+04  d E =-.105230E-01  mag=     4.0527
       N       E                     dE             d eps       ncg     rms          rms(c)
DAV:   1    -0.116302120632E+04   -0.14513E-03   -0.40255E-01 12496   0.708E-01    0.267E-01
RMM:   2    -0.116302258247E+04   -0.13762E-02   -0.10929E-02 12281   0.136E-01    0.188E-01
RMM:   3    -0.116302270126E+04   -0.11879E-03   -0.64949E-04 10889   0.480E-02    0.107E-01
RMM:   4    -0.116302274599E+04   -0.44734E-04   -0.25821E-04  8354   0.197E-02    0.562E-02
RMM:   5    -0.116302283042E+04   -0.84430E-04   -0.11884E-04  7379   0.136E-02    0.295E-02
RMM:   6    -0.116302286729E+04   -0.36868E-04   -0.36910E-05  6975   0.789E-03    0.266E-02
RMM:   7    -0.116302291991E+04   -0.52623E-04   -0.28030E-05  6598   0.606E-03    0.251E-02
RMM:   8    -0.116302301399E+04   -0.94080E-04   -0.52682E-05  6764   0.738E-03
   6 F= -.11630230E+04 E0= -.11630205E+04  d E =-.191268E-02  mag=     4.0519
       N       E                     dE             d eps       ncg     rms          rms(c)
DAV:   1    -0.116302127492E+04    0.16450E-02   -0.69643E-01 12576   0.885E-01    0.454E-01
RMM:   2    -0.116302487419E+04   -0.35993E-02   -0.15817E-02 12738   0.160E-01    0.247E-01
RMM:   3    -0.116302537411E+04   -0.49992E-03   -0.95368E-04 11449   0.557E-02    0.106E-01
RMM:   4    -0.116302546449E+04   -0.90375E-04   -0.24537E-04  7920   0.217E-02    0.569E-02
RMM:   5    -0.116302556598E+04   -0.10149E-03   -0.12944E-04  7289   0.139E-02    0.383E-02
RMM:   6    -0.116302562096E+04   -0.54984E-04   -0.47182E-05  6992   0.939E-03    0.287E-02
RMM:   7    -0.116302567579E+04   -0.54824E-04   -0.32239E-05  6835   0.665E-03    0.269E-02
RMM:   8    -0.116302579574E+04   -0.11995E-03   -0.73756E-05  6865   0.967E-03    0.267E-02
RMM:   9    -0.116302594369E+04   -0.14795E-03   -0.13893E-04  6872   0.111E-02    0.235E-02
RMM:  10    -0.116302606574E+04   -0.12205E-03   -0.12686E-04  6635   0.957E-03    0.228E-02
RMM:  11    -0.116302637364E+04   -0.30790E-03   -0.90293E-04  8385   0.302E-02    0.193E-02
RMM:  12    -0.116302663476E+04   -0.26112E-03   -0.13178E-03  8698   0.354E-02    0.170E-02
RMM:  13    -0.116302677365E+04   -0.13889E-03   -0.40592E-04  7621   0.171E-02    0.157E-02
RMM:  14    -0.116302683514E+04   -0.61497E-04   -0.13726E-04  6507   0.111E-02
   7 F= -.11630268E+04 E0= -.11630244E+04  d E =-.382115E-02  mag=     4.0509
       N       E                     dE             d eps       ncg     rms          rms(c)
DAV:   1    -0.116302467181E+04    0.21018E-02   -0.73983E-01 12544   0.910E-01    0.455E-01
RMM:   2    -0.116302838709E+04   -0.37153E-02   -0.16734E-02 12774   0.164E-01    0.241E-01
RMM:   3    -0.116302888055E+04   -0.49345E-03   -0.10109E-03 11404   0.571E-02    0.100E-01
RMM:   4    -0.116302891467E+04   -0.34123E-04   -0.22050E-04  7793   0.201E-02    0.505E-02
RMM:   5    -0.116302896717E+04   -0.52501E-04   -0.97096E-05  7222   0.132E-02    0.330E-02
RMM:   6    -0.116302899256E+04   -0.25387E-04   -0.32840E-05  6957   0.878E-03    0.219E-02
RMM:   7    -0.116302901759E+04   -0.25030E-04   -0.20933E-05  6778   0.595E-03    0.202E-02
RMM:   8    -0.116302905900E+04   -0.41411E-04   -0.25596E-05  6577   0.637E-03
   8 F= -.11630291E+04 E0= -.11630266E+04  d E =-.222386E-02  mag=     4.0514
       N       E                     dE             d eps       ncg     rms          rms(c)
DAV:   1    -0.116302751158E+04    0.15060E-02   -0.55737E-01 12488   0.804E-01    0.368E-01
RMM:   2    -0.116303010368E+04   -0.25921E-02   -0.12946E-02 12881   0.143E-01    0.197E-01
RMM:   3    -0.116303041899E+04   -0.31531E-03   -0.72077E-04 10623   0.477E-02    0.865E-02
RMM:   4    -0.116303046383E+04   -0.44845E-04   -0.17136E-04  7506   0.183E-02    0.444E-02
RMM:   5    -0.116303052911E+04   -0.65277E-04   -0.97017E-05  7175   0.119E-02    0.299E-02
RMM:   6    -0.116303056016E+04   -0.31054E-04   -0.31856E-05  6934   0.818E-03    0.235E-02
RMM:   7    -0.116303059167E+04   -0.31507E-04   -0.22225E-05  6735   0.597E-03    0.221E-02
RMM:   8    -0.116303065315E+04   -0.61476E-04   -0.36991E-05  6659   0.724E-03
   9 F= -.11630307E+04 E0= -.11630282E+04  d E =-.159415E-02  mag=     4.0514
       N       E                     dE             d eps       ncg     rms          rms(c)
DAV:   1    -0.116303015814E+04    0.43353E-03   -0.33123E-01 12576   0.635E-01    0.247E-01
RMM:   2    -0.116303147723E+04   -0.13191E-02   -0.78660E-03 12891   0.111E-01    0.134E-01
RMM:   3    -0.116303161502E+04   -0.13779E-03   -0.39369E-04  8915   0.369E-02    0.652E-02
RMM:   4    -0.116303165805E+04   -0.43032E-04   -0.11788E-04  7282   0.145E-02    0.359E-02
RMM:   5    -0.116303171681E+04   -0.58759E-04   -0.70452E-05  7072   0.999E-03    0.256E-02
RMM:   6    -0.116303174860E+04   -0.31792E-04   -0.27376E-05  6837   0.679E-03    0.221E-02
RMM:   7    -0.116303177976E+04   -0.31154E-04   -0.18897E-05  6484   0.558E-03    0.212E-02
RMM:   8    -0.116303185905E+04   -0.79290E-04   -0.58244E-05  6661   0.850E-03
  10 F= -.11630319E+04 E0= -.11630294E+04  d E =-.120590E-02  mag=     4.0512
       N       E                     dE             d eps       ncg     rms          rms(c)
DAV:   1    -0.116303198986E+04   -0.21010E-03   -0.20110E-01 12560   0.512E-01    0.125E-01
RMM:   2    -0.116303254764E+04   -0.55778E-03   -0.49780E-03 12702   0.891E-02    0.766E-02
RMM:   3    -0.116303257842E+04   -0.30776E-04   -0.23044E-04  7896   0.298E-02    0.483E-02
RMM:   4    -0.116303261039E+04   -0.31972E-04   -0.85683E-05  7140   0.118E-02    0.296E-02
RMM:   5    -0.116303266033E+04   -0.49935E-04   -0.51660E-05  6944   0.834E-03    0.210E-02
RMM:   6    -0.116303268509E+04   -0.24763E-04   -0.20275E-05  6643   0.554E-03    0.200E-02
RMM:   7    -0.116303271288E+04   -0.27794E-04   -0.15612E-05  6057   0.510E-03    0.194E-02
RMM:   8    -0.116303276795E+04   -0.55066E-04   -0.36023E-05  6151   0.649E-03
  11 F= -.11630328E+04 E0= -.11630303E+04  d E =-.908903E-03  mag=     4.0513
