       N       E                     dE             d eps       ncg     rms          rms(c)
DAV:   1    -0.116094616958E+04   -0.11609E+04   -0.96015E-04 14624   0.771E-02    0.115E-01
RMM:   2    -0.116094737652E+04   -0.12069E-02   -0.64406E-04  8934   0.334E-02    0.132E-01
RMM:   3    -0.116094776659E+04   -0.39007E-03   -0.15545E-04  7211   0.152E-02    0.114E-01
RMM:   4    -0.116094734216E+04    0.42443E-03   -0.42759E-05  6542   0.118E-02    0.113E-01
RMM:   5    -0.116094635395E+04    0.98820E-03   -0.21419E-04  7468   0.198E-02    0.118E-01
RMM:   6    -0.116094790075E+04   -0.15468E-02   -0.45024E-04  8203   0.302E-02    0.118E-01
RMM:   7    -0.116095815422E+04   -0.10253E-01   -0.34616E-02 11822   0.237E-01    0.139E-01
RMM:   8    -0.116096046006E+04   -0.23058E-02   -0.52273E-03 11444   0.710E-02    0.145E-01
RMM:   9    -0.116095458377E+04    0.58763E-02   -0.70018E-03 10809   0.113E-01    0.139E-01
RMM:  10    -0.116095470345E+04   -0.11967E-03   -0.67445E-04  8124   0.235E-02    0.146E-01
RMM:  11    -0.116095343879E+04    0.12647E-02   -0.75669E-04  8093   0.255E-02    0.158E-01
RMM:  12    -0.116095192339E+04    0.15154E-02   -0.75962E-04  8428   0.299E-02    0.162E-01
RMM:  13    -0.116095968700E+04   -0.77636E-02   -0.14770E-02 11248   0.158E-01    0.142E-01
RMM:  14    -0.116096635125E+04   -0.66642E-02   -0.22579E-02 11546   0.181E-01    0.153E-01
RMM:  15    -0.116096801000E+04   -0.16587E-02   -0.35058E-03 10879   0.518E-02    0.148E-01
RMM:  16    -0.116096188613E+04    0.61239E-02   -0.90978E-03 11035   0.129E-01    0.144E-01
RMM:  17    -0.116096147984E+04    0.40629E-03   -0.13698E-03  9026   0.347E-02    0.158E-01
RMM:  18    -0.116096072956E+04    0.75027E-03   -0.70068E-04  7437   0.182E-02    0.164E-01
RMM:  19    -0.116096257602E+04   -0.18465E-02   -0.70730E-04  8794   0.376E-02    0.168E-01
RMM:  20    -0.116096395753E+04   -0.13815E-02   -0.75074E-04  8094   0.287E-02    0.165E-01
RMM:  21    -0.116096512021E+04   -0.11627E-02   -0.62679E-04  8142   0.256E-02    0.165E-01
RMM:  22    -0.116096554680E+04   -0.42658E-03   -0.18096E-04  6882   0.132E-02    0.165E-01
RMM:  23    -0.116096455389E+04    0.99290E-03   -0.64486E-04  8407   0.347E-02    0.168E-01
RMM:  24    -0.116096592144E+04   -0.13675E-02   -0.63356E-04  8275   0.285E-02    0.173E-01
RMM:  25    -0.116096788303E+04   -0.19616E-02   -0.18875E-03  9262   0.446E-02    0.176E-01
RMM:  26    -0.116096799600E+04   -0.11297E-03   -0.23193E-04  7455   0.141E-02    0.181E-01
RMM:  27    -0.116096895727E+04   -0.96127E-03   -0.31647E-04  7737   0.235E-02    0.177E-01
RMM:  28    -0.116096933235E+04   -0.37508E-03   -0.15851E-04  6548   0.115E-02    0.176E-01
RMM:  29    -0.116097054454E+04   -0.12122E-02   -0.56141E-04  8352   0.274E-02    0.171E-01
RMM:  30    -0.116097061908E+04   -0.74547E-04   -0.83027E-05  6503   0.986E-03
   1 F= -.11609706E+04 E0= -.11609706E+04  d E =-.116097E+04  mag=     8.0000
       N       E                     dE             d eps       ncg     rms          rms(c)
DAV:   1    -0.116101291394E+04   -0.42369E-01   -0.22711E+01 12576   0.557E+00    0.192E+00
RMM:   2    -0.116106528384E+04   -0.52370E-01   -0.70310E-01 12491   0.111E+00    0.156E+00
RMM:   3    -0.116106347011E+04    0.18137E-02   -0.41818E-02 13176   0.375E-01    0.969E-01
RMM:   4    -0.116105961282E+04    0.38573E-02   -0.23350E-02 14548   0.163E-01    0.522E-01
RMM:   5    -0.116105975099E+04   -0.13817E-03   -0.58576E-03 14062   0.854E-02    0.203E-01
RMM:   6    -0.116106053103E+04   -0.78005E-03   -0.11861E-03 13628   0.376E-02    0.156E-01
RMM:   7    -0.116106180496E+04   -0.12739E-02   -0.89249E-04 10751   0.343E-02    0.125E-01
RMM:   8    -0.116106336098E+04   -0.15560E-02   -0.11156E-03  9815   0.359E-02    0.109E-01
RMM:   9    -0.116106450412E+04   -0.11431E-02   -0.86680E-04  9280   0.295E-02    0.110E-01
RMM:  10    -0.116106596686E+04   -0.14627E-02   -0.10360E-03  9199   0.329E-02    0.102E-01
RMM:  11    -0.116107081320E+04   -0.48463E-02   -0.10713E-02 10928   0.114E-01    0.893E-02
RMM:  12    -0.116107364302E+04   -0.28298E-02   -0.70063E-03 10889   0.826E-02    0.845E-02
RMM:  13    -0.116107482368E+04   -0.11807E-02   -0.22927E-03 10086   0.397E-02    0.847E-02
RMM:  14    -0.116107488255E+04   -0.58871E-04   -0.17950E-04  7837   0.138E-02
   2 F= -.11610749E+04 E0= -.11610749E+04  d E =-.104263E+00  mag=     8.0000
       N       E                     dE             d eps       ncg     rms          rms(c)
DAV:   1    -0.116111088644E+04   -0.36063E-01   -0.67871E+00 12696   0.303E+00    0.992E-01
RMM:   2    -0.116112090122E+04   -0.10015E-01   -0.22499E-01 12364   0.642E-01    0.930E-01
RMM:   3    -0.116111949839E+04    0.14028E-02   -0.14471E-02 13278   0.213E-01    0.595E-01
RMM:   4    -0.116111788512E+04    0.16133E-02   -0.74884E-03 13847   0.976E-02    0.307E-01
RMM:   5    -0.116111841528E+04   -0.53016E-03   -0.28403E-03 12630   0.615E-02    0.144E-01
RMM:   6    -0.116111883841E+04   -0.42314E-03   -0.46441E-04  9507   0.252E-02    0.109E-01
RMM:   7    -0.116111992194E+04   -0.10835E-02   -0.79924E-04  9241   0.295E-02    0.812E-02
RMM:   8    -0.116112073915E+04   -0.81721E-03   -0.62969E-04  8714   0.247E-02    0.757E-02
RMM:   9    -0.116112114737E+04   -0.40822E-03   -0.25572E-04  7936   0.151E-02    0.737E-02
RMM:  10    -0.116112167381E+04   -0.52644E-03   -0.25354E-04  7893   0.151E-02    0.714E-02
RMM:  11    -0.116112387479E+04   -0.22010E-02   -0.32145E-03  9672   0.572E-02    0.641E-02
RMM:  12    -0.116112575385E+04   -0.18791E-02   -0.39729E-03  9969   0.611E-02    0.588E-02
RMM:  13    -0.116112772828E+04   -0.19744E-02   -0.57577E-03 10157   0.729E-02    0.530E-02
RMM:  14    -0.116112867988E+04   -0.95161E-03   -0.24411E-03  9546   0.401E-02    0.512E-02
RMM:  15    -0.116112955101E+04   -0.87113E-03   -0.16702E-03  9052   0.364E-02    0.473E-02
RMM:  16    -0.116113051394E+04   -0.96293E-03   -0.21655E-03  9062   0.423E-02    0.401E-02
RMM:  17    -0.116113192615E+04   -0.14122E-02   -0.12030E-02 10683   0.108E-01    0.541E-02
RMM:  18    -0.116113236862E+04   -0.44247E-03   -0.11760E-03  9181   0.297E-02    0.326E-02
RMM:  19    -0.116113295372E+04   -0.58509E-03   -0.35225E-03  9577   0.576E-02    0.340E-02
RMM:  20    -0.116113340520E+04   -0.45149E-03   -0.23998E-03  9108   0.422E-02    0.238E-02
RMM:  21    -0.116113368043E+04   -0.27523E-03   -0.21728E-03  9005   0.410E-02    0.191E-02
RMM:  22    -0.116113382780E+04   -0.14737E-03   -0.76312E-04  8424   0.215E-02    0.127E-02
RMM:  23    -0.116113389683E+04   -0.69032E-04   -0.79235E-04  8057   0.253E-02
   3 F= -.11611339E+04 E0= -.11611339E+04  d E =-.590143E-01  mag=     8.0000
       N       E                     dE             d eps       ncg     rms          rms(c)
DAV:   1    -0.116113889839E+04   -0.50706E-02   -0.98262E+00 12672   0.367E+00    0.126E+00
RMM:   2    -0.116117068054E+04   -0.31782E-01   -0.27471E-01 12856   0.690E-01    0.791E-01
RMM:   3    -0.116117240254E+04   -0.17220E-02   -0.15299E-02 13608   0.227E-01    0.461E-01
RMM:   4    -0.116117177852E+04    0.62402E-03   -0.47749E-03 14734   0.777E-02    0.193E-01
RMM:   5    -0.116117178118E+04   -0.26627E-05   -0.10184E-03 13106   0.337E-02    0.723E-02
RMM:   6    -0.116117181034E+04   -0.29155E-04   -0.19571E-04  8671   0.166E-02    0.377E-02
RMM:   7    -0.116117185819E+04   -0.47855E-04   -0.12279E-04  7716   0.124E-02    0.265E-02
RMM:   8    -0.116117189477E+04   -0.36573E-04   -0.67738E-05  7327   0.998E-03
   4 F= -.11611719E+04 E0= -.11611719E+04  d E =-.379979E-01  mag=     8.0000
       N       E                     dE             d eps       ncg     rms          rms(c)
DAV:   1    -0.116117259609E+04   -0.73790E-03   -0.74850E+00 12640   0.326E+00    0.927E-01
RMM:   2    -0.116119269387E+04   -0.20098E-01   -0.20701E-01 13127   0.589E-01    0.641E-01
RMM:   3    -0.116119293990E+04   -0.24604E-03   -0.10457E-02 13918   0.187E-01    0.391E-01
RMM:   4    -0.116119248707E+04    0.45283E-03   -0.34306E-03 15010   0.657E-02    0.176E-01
RMM:   5    -0.116119249329E+04   -0.62219E-05   -0.92094E-04 12836   0.310E-02    0.494E-02
RMM:   6    -0.116119251529E+04   -0.21992E-04   -0.18035E-04  8363   0.163E-02    0.325E-02
RMM:   7    -0.116119256141E+04   -0.46128E-04   -0.11295E-04  7559   0.117E-02    0.231E-02
RMM:   8    -0.116119260245E+04   -0.41037E-04   -0.68544E-05  7283   0.997E-03
   5 F= -.11611926E+04 E0= -.11611926E+04  d E =-.207077E-01  mag=     8.0000
       N       E                     dE             d eps       ncg     rms          rms(c)
DAV:   1    -0.116119610719E+04   -0.35458E-02   -0.26417E+00 12872   0.194E+00    0.480E-01
RMM:   2    -0.116120221183E+04   -0.61046E-02   -0.71280E-02 12891   0.341E-01    0.344E-01
RMM:   3    -0.116120212287E+04    0.88966E-04   -0.37296E-03 13201   0.116E-01    0.218E-01
RMM:   4    -0.116120197657E+04    0.14630E-03   -0.13938E-03 13879   0.413E-02    0.106E-01
RMM:   5    -0.116120197867E+04   -0.20988E-05   -0.30658E-04  9146   0.214E-02    0.322E-02
RMM:   6    -0.116120200032E+04   -0.21650E-04   -0.73998E-05  7277   0.123E-02    0.251E-02
RMM:   7    -0.116120202380E+04   -0.23481E-04   -0.45213E-05  7149   0.103E-02    0.225E-02
RMM:   8    -0.116120205729E+04   -0.33495E-04   -0.42013E-05  7054   0.845E-03
   6 F= -.11612021E+04 E0= -.11612021E+04  d E =-.945484E-02  mag=     8.0000
       N       E                     dE             d eps       ncg     rms          rms(c)
DAV:   1    -0.116120209149E+04   -0.67688E-04   -0.32598E+00 12624   0.215E+00    0.485E-01
RMM:   2    -0.116120988423E+04   -0.77927E-02   -0.86078E-02 13053   0.374E-01    0.328E-01
RMM:   3    -0.116120982770E+04    0.56533E-04   -0.42739E-03 13320   0.123E-01    0.209E-01
RMM:   4    -0.116120967577E+04    0.15192E-03   -0.13692E-03 14284   0.421E-02    0.965E-02
RMM:   5    -0.116120969430E+04   -0.18528E-04   -0.30790E-04  9154   0.209E-02    0.279E-02
RMM:   6    -0.116120971247E+04   -0.18169E-04   -0.71088E-05  7236   0.119E-02    0.197E-02
RMM:   7    -0.116120973605E+04   -0.23575E-04   -0.46729E-05  7128   0.103E-02    0.170E-02
RMM:   8    -0.116120976527E+04   -0.29229E-04   -0.41805E-05  7034   0.809E-03
   7 F= -.11612098E+04 E0= -.11612098E+04  d E =-.770798E-02  mag=     8.0000
       N       E                     dE             d eps       ncg     rms          rms(c)
DAV:   1    -0.116120940350E+04    0.33254E-03   -0.23026E+00 12816   0.179E+00    0.393E-01
RMM:   2    -0.116121488856E+04   -0.54851E-02   -0.59085E-02 13081   0.309E-01    0.257E-01
RMM:   3    -0.116121486454E+04    0.24018E-04   -0.29083E-03 13102   0.100E-01    0.163E-01
RMM:   4    -0.116121475797E+04    0.10657E-03   -0.86440E-04 12901   0.346E-02    0.745E-02
RMM:   5    -0.116121478093E+04   -0.22965E-04   -0.20951E-04  7795   0.198E-02    0.231E-02
RMM:   6    -0.116121479761E+04   -0.16675E-04   -0.61597E-05  7176   0.117E-02    0.170E-02
RMM:   7    -0.116121481723E+04   -0.19626E-04   -0.41804E-05  7056   0.970E-03    0.150E-02
RMM:   8    -0.116121484098E+04   -0.23749E-04   -0.34911E-05  6951   0.768E-03
   8 F= -.11612148E+04 E0= -.11612148E+04  d E =-.507571E-02  mag=     8.0000
       N       E                     dE             d eps       ncg     rms          rms(c)
DAV:   1    -0.116121482456E+04   -0.73231E-05   -0.13529E+00 13000   0.136E+00    0.289E-01
RMM:   2    -0.116121805551E+04   -0.32310E-02   -0.33954E-02 13113   0.234E-01    0.185E-01
RMM:   3    -0.116121805349E+04    0.20199E-05   -0.16662E-03 12439   0.748E-02    0.117E-01
RMM:   4    -0.116121798993E+04    0.63562E-04   -0.43303E-04  9957   0.263E-02    0.550E-02
RMM:   5    -0.116121801132E+04   -0.21391E-04   -0.12630E-04  7278   0.168E-02    0.177E-02
RMM:   6    -0.116121802563E+04   -0.14311E-04   -0.46122E-05  7099   0.105E-02    0.143E-02
RMM:   7    -0.116121804081E+04   -0.15177E-04   -0.32090E-05  6928   0.817E-03    0.131E-02
RMM:   8    -0.116121806135E+04   -0.20537E-04   -0.27518E-05  6869   0.719E-03
   9 F= -.11612181E+04 E0= -.11612181E+04  d E =-.322036E-02  mag=     8.0000
       N       E                     dE             d eps       ncg     rms          rms(c)
DAV:   1    -0.116121728602E+04    0.75479E-03   -0.14947E+00 12736   0.142E+00    0.298E-01
RMM:   2    -0.116122085101E+04   -0.35650E-02   -0.37133E-02 13082   0.244E-01    0.186E-01
RMM:   3    -0.116122085306E+04   -0.20527E-05   -0.18147E-03 12568   0.785E-02    0.118E-01
RMM:   4    -0.116122078558E+04    0.67486E-04   -0.44701E-04 10010   0.270E-02    0.549E-02
RMM:   5    -0.116122080700E+04   -0.21422E-04   -0.12861E-04  7284   0.169E-02    0.174E-02
RMM:   6    -0.116122082072E+04   -0.13719E-04   -0.46741E-05  7108   0.107E-02    0.138E-02
RMM:   7    -0.116122083422E+04   -0.13507E-04   -0.32790E-05  6906   0.808E-03    0.125E-02
RMM:   8    -0.116122085167E+04   -0.17444E-04   -0.25333E-05  6826   0.703E-03
  10 F= -.11612209E+04 E0= -.11612209E+04  d E =-.279032E-02  mag=     8.0000
       N       E                     dE             d eps       ncg     rms          rms(c)
DAV:   1    -0.116121999516E+04    0.83906E-03   -0.12357E+00 12752   0.129E+00    0.265E-01
RMM:   2    -0.116122295311E+04   -0.29580E-02   -0.30582E-02 13119   0.222E-01    0.165E-01
RMM:   3    -0.116122295560E+04   -0.24844E-05   -0.14779E-03 12232   0.701E-02    0.105E-01
RMM:   4    -0.116122290157E+04    0.54030E-04   -0.34325E-04  9001   0.243E-02    0.503E-02
RMM:   5    -0.116122292057E+04   -0.19007E-04   -0.11419E-04  7240   0.155E-02    0.156E-02
RMM:   6    -0.116122293304E+04   -0.12471E-04   -0.40986E-05  7060   0.103E-02    0.130E-02
RMM:   7    -0.116122294479E+04   -0.11744E-04   -0.28702E-05  6876   0.724E-03    0.122E-02
RMM:   8    -0.116122295970E+04   -0.14909E-04   -0.20796E-05  6776   0.661E-03
  11 F= -.11612230E+04 E0= -.11612230E+04  d E =-.210803E-02  mag=     8.0000
       N       E                     dE             d eps       ncg     rms          rms(c)
DAV:   1    -0.116122212951E+04    0.81528E-03   -0.94580E-01 12768   0.112E+00    0.238E-01
RMM:   2    -0.116122445084E+04   -0.23213E-02   -0.23202E-02 13115   0.193E-01    0.147E-01
RMM:   3    -0.116122446682E+04   -0.15985E-04   -0.11012E-03 11643   0.601E-02    0.918E-02
RMM:   4    -0.116122442780E+04    0.39029E-04   -0.23601E-04  7940   0.211E-02    0.451E-02
RMM:   5    -0.116122444567E+04   -0.17876E-04   -0.98391E-05  7181   0.140E-02    0.143E-02
RMM:   6    -0.116122445617E+04   -0.10504E-04   -0.33189E-05  7001   0.955E-03    0.127E-02
RMM:   7    -0.116122446442E+04   -0.82449E-05   -0.22731E-05  6776   0.628E-03    0.115E-02
RMM:   8    -0.116122447794E+04   -0.13523E-04   -0.17705E-05  6628   0.626E-03
  12 F= -.11612245E+04 E0= -.11612245E+04  d E =-.151824E-02  mag=     8.0000
       N       E                     dE             d eps       ncg     rms          rms(c)
DAV:   1    -0.116122371917E+04    0.74525E-03   -0.74382E-01 12768   0.992E-01    0.207E-01
RMM:   2    -0.116122555427E+04   -0.18351E-02   -0.18111E-02 13112   0.170E-01    0.127E-01
RMM:   3    -0.116122556506E+04   -0.10787E-04   -0.82787E-04 10808   0.522E-02    0.787E-02
RMM:   4    -0.116122553644E+04    0.28624E-04   -0.17541E-04  7465   0.186E-02    0.389E-02
RMM:   5    -0.116122555225E+04   -0.15813E-04   -0.80083E-05  7132   0.124E-02    0.132E-02
RMM:   6    -0.116122556154E+04   -0.92861E-05   -0.27282E-05  6949   0.843E-03    0.116E-02
RMM:   7    -0.116122556865E+04   -0.71159E-05   -0.18269E-05  6695   0.562E-03    0.105E-02
RMM:   8    -0.116122558122E+04   -0.12563E-04   -0.16573E-05  6307   0.575E-03
  13 F= -.11612256E+04 E0= -.11612256E+04  d E =-.110327E-02  mag=     8.0000
