       N       E                     dE             d eps       ncg     rms          rms(c)
DAV:   1    -0.116266370481E+04   -0.11627E+04   -0.19360E-06  3592   0.195E-03    0.149E-03
RMM:   2    -0.116266370480E+04    0.84547E-08   -0.22785E-08   675   0.126E-03    0.959E-04
RMM:   3    -0.116266370480E+04    0.38708E-08   -0.63302E-10   436   0.123E-03    0.417E-04
RMM:   4    -0.116266370479E+04    0.31578E-08   -0.61958E-10   332   0.124E-03    0.216E-04
RMM:   5    -0.116266370479E+04    0.14261E-08    0.00000E+00   257   0.124E-03    0.108E-04
RMM:   6    -0.116266370479E+04    0.33469E-09    0.00000E+00   222   0.124E-03    0.764E-05
RMM:   7    -0.116266370479E+04   -0.90222E-09   -0.73992E-09   204   0.125E-03    0.707E-05
RMM:   8    -0.116266370479E+04   -0.84401E-09    0.00000E+00   186   0.125E-03
   1 F= -.11626637E+04 E0= -.11626608E+04  d E =-.116266E+04  mag=     4.9645
       N       E                     dE             d eps       ncg     rms          rms(c)
DAV:   1    -0.116266306668E+04    0.63811E-03   -0.62287E-02  6016   0.282E-01    0.669E-02
RMM:   2    -0.116266321213E+04   -0.14545E-03   -0.14836E-03  6059   0.482E-02    0.409E-02
RMM:   3    -0.116266321364E+04   -0.15087E-05   -0.65844E-05  3117   0.172E-02    0.241E-02
RMM:   4    -0.116266320994E+04    0.36999E-05   -0.22825E-05  3050   0.614E-03    0.169E-02
RMM:   5    -0.116266320920E+04    0.74136E-06   -0.60934E-06  2612   0.384E-03    0.972E-03
RMM:   6    -0.116266320944E+04   -0.24754E-06   -0.29635E-06  2076   0.272E-03    0.460E-03
RMM:   7    -0.116266320954E+04   -0.96785E-07   -0.78611E-07  1275   0.231E-03    0.215E-03
RMM:   8    -0.116266320957E+04   -0.29773E-07   -0.15993E-07   826   0.191E-03
   2 F= -.11626632E+04 E0= -.11626603E+04  d E =0.495221E-03  mag=     4.9651
       N       E                     dE             d eps       ncg     rms          rms(c)
DAV:   1    -0.116266303467E+04    0.17487E-03   -0.79203E-03  6048   0.101E-01    0.262E-02
RMM:   2    -0.116266304997E+04   -0.15296E-04   -0.18047E-04  3328   0.176E-02    0.181E-02
RMM:   3    -0.116266305143E+04   -0.14642E-05   -0.16218E-05  3076   0.731E-03    0.992E-03
RMM:   4    -0.116266305077E+04    0.66496E-06   -0.44168E-06  2584   0.325E-03    0.754E-03
RMM:   5    -0.116266305037E+04    0.40277E-06   -0.19528E-06  2051   0.255E-03    0.279E-03
RMM:   6    -0.116266305041E+04   -0.48836E-07   -0.56395E-07  1096   0.194E-03    0.128E-03
RMM:   7    -0.116266305043E+04   -0.13984E-07   -0.10377E-07   765   0.182E-03    0.790E-04
RMM:   8    -0.116266305044E+04   -0.86584E-08   -0.33363E-08   514   0.178E-03
   3 F= -.11626631E+04 E0= -.11626601E+04  d E =0.159134E-03  mag=     4.9648
       N       E                     dE             d eps       ncg     rms          rms(c)
DAV:   1    -0.116266280747E+04    0.24295E-03   -0.11136E-02  6016   0.120E-01    0.285E-02
RMM:   2    -0.116266283333E+04   -0.25859E-04   -0.24194E-04  3503   0.203E-02    0.169E-02
RMM:   3    -0.116266283610E+04   -0.27639E-05   -0.19748E-05  3067   0.859E-03    0.927E-03
RMM:   4    -0.116266283606E+04    0.33324E-07   -0.50345E-06  2512   0.345E-03    0.732E-03
RMM:   5    -0.116266283587E+04    0.19737E-06   -0.18248E-06  1879   0.263E-03    0.353E-03
RMM:   6    -0.116266283593E+04   -0.58542E-07   -0.71683E-07  1139   0.193E-03    0.120E-03
RMM:   7    -0.116266283594E+04   -0.14858E-07   -0.12292E-07   719   0.180E-03    0.670E-04
RMM:   8    -0.116266283595E+04   -0.85565E-08   -0.13748E-08   467   0.172E-03
   4 F= -.11626628E+04 E0= -.11626599E+04  d E =0.214488E-03  mag=     4.9650
       N       E                     dE             d eps       ncg     rms          rms(c)
DAV:   1    -0.116266244645E+04    0.38949E-03   -0.25433E-02  6016   0.181E-01    0.429E-02
RMM:   2    -0.116266250930E+04   -0.62847E-04   -0.58519E-04  5022   0.305E-02    0.237E-02
RMM:   3    -0.116266251265E+04   -0.33591E-05   -0.32000E-05  3091   0.116E-02    0.129E-02
RMM:   4    -0.116266251211E+04    0.53979E-06   -0.96355E-06  2910   0.424E-03    0.759E-03
RMM:   5    -0.116266251196E+04    0.15426E-06   -0.26111E-06  2101   0.290E-03    0.403E-03
RMM:   6    -0.116266251205E+04   -0.92725E-07   -0.83773E-07  1191   0.210E-03    0.130E-03
RMM:   7    -0.116266251209E+04   -0.36482E-07   -0.27484E-07   898   0.200E-03    0.793E-04
RMM:   8    -0.116266251210E+04   -0.10128E-07   -0.51649E-08   588   0.185E-03
   5 F= -.11626625E+04 E0= -.11626596E+04  d E =0.323849E-03  mag=     4.9653
       N       E                     dE             d eps       ncg     rms          rms(c)
DAV:   1    -0.116266233309E+04    0.17900E-03   -0.67761E-03  6032   0.928E-02    0.234E-02
RMM:   2    -0.116266234763E+04   -0.14544E-04   -0.14929E-04  3283   0.161E-02    0.145E-02
RMM:   3    -0.116266234944E+04   -0.18035E-05   -0.13966E-05  3056   0.694E-03    0.854E-03
RMM:   4    -0.116266234922E+04    0.21714E-06   -0.35319E-06  2304   0.301E-03    0.650E-03
RMM:   5    -0.116266234902E+04    0.20349E-06   -0.14566E-06  1706   0.247E-03    0.310E-03
RMM:   6    -0.116266234906E+04   -0.44325E-07   -0.55513E-07  1132   0.190E-03    0.117E-03
RMM:   7    -0.116266234908E+04   -0.14727E-07   -0.92108E-08   642   0.177E-03    0.717E-04
RMM:   8    -0.116266234908E+04   -0.79162E-08   -0.14363E-08   475   0.173E-03
   6 F= -.11626623E+04 E0= -.11626594E+04  d E =0.163016E-03  mag=     4.9649
       N       E                     dE             d eps       ncg     rms          rms(c)
DAV:   1    -0.116266219151E+04    0.15757E-03   -0.55837E-03  5888   0.844E-02    0.209E-02
RMM:   2    -0.116266220457E+04   -0.13057E-04   -0.12338E-04  3227   0.147E-02    0.141E-02
RMM:   3    -0.116266220631E+04   -0.17410E-05   -0.11481E-05  3016   0.633E-03    0.768E-03
RMM:   4    -0.116266220620E+04    0.10320E-06   -0.24925E-06  1939   0.273E-03    0.615E-03
RMM:   5    -0.116266220604E+04    0.15862E-06   -0.96200E-07  1450   0.227E-03    0.245E-03
RMM:   6    -0.116266220607E+04   -0.22308E-07   -0.38774E-07   822   0.182E-03    0.729E-04
RMM:   7    -0.116266220607E+04   -0.48312E-08   -0.43186E-08   517   0.172E-03    0.396E-04
RMM:   8    -0.116266220608E+04   -0.33469E-08   -0.90744E-09   412   0.170E-03
   7 F= -.11626622E+04 E0= -.11626593E+04  d E =0.143009E-03  mag=     4.9650
       N       E                     dE             d eps       ncg     rms          rms(c)
DAV:   1    -0.116266203877E+04    0.16730E-03   -0.59236E-03  5872   0.869E-02    0.209E-02
RMM:   2    -0.116266205283E+04   -0.14060E-04   -0.12806E-04  3226   0.150E-02    0.125E-02
RMM:   3    -0.116266205479E+04   -0.19581E-05   -0.11954E-05  3015   0.658E-03    0.716E-03
RMM:   4    -0.116266205482E+04   -0.23749E-07   -0.25577E-06  1786   0.276E-03    0.516E-03
RMM:   5    -0.116266205469E+04    0.12864E-06   -0.87409E-07  1401   0.229E-03    0.249E-03
RMM:   6    -0.116266205473E+04   -0.39101E-07   -0.62691E-07   888   0.183E-03    0.811E-04
RMM:   7    -0.116266205473E+04   -0.53842E-08   -0.52632E-08   538   0.170E-03    0.402E-04
RMM:   8    -0.116266205473E+04   -0.26193E-08   -0.90475E-09   394   0.167E-03
   8 F= -.11626621E+04 E0= -.11626592E+04  d E =0.151340E-03  mag=     4.9650
       N       E                     dE             d eps       ncg     rms          rms(c)
DAV:   1    -0.116266174227E+04    0.31246E-03   -0.17331E-02  6016   0.149E-01    0.339E-02
RMM:   2    -0.116266178220E+04   -0.39924E-04   -0.37902E-04  3996   0.251E-02    0.192E-02
RMM:   3    -0.116266178553E+04   -0.33304E-05   -0.27557E-05  3084   0.107E-02    0.102E-02
RMM:   4    -0.116266178544E+04    0.92085E-07   -0.78242E-06  2737   0.396E-03    0.730E-03
RMM:   5    -0.116266178521E+04    0.22487E-06   -0.23801E-06  2055   0.290E-03    0.372E-03
RMM:   6    -0.116266178530E+04   -0.84226E-07   -0.80714E-07  1075   0.197E-03    0.107E-03
RMM:   7    -0.116266178532E+04   -0.27459E-07   -0.23975E-07   826   0.192E-03    0.660E-04
RMM:   8    -0.116266178533E+04   -0.75379E-08   -0.39898E-08   521   0.175E-03
   9 F= -.11626618E+04 E0= -.11626589E+04  d E =0.269405E-03  mag=     4.9651
       N       E                     dE             d eps       ncg     rms          rms(c)
DAV:   1    -0.116266161854E+04    0.16678E-03   -0.60380E-03  5904   0.883E-02    0.208E-02
RMM:   2    -0.116266163164E+04   -0.13102E-04   -0.13519E-04  3251   0.154E-02    0.137E-02
RMM:   3    -0.116266163326E+04   -0.16234E-05   -0.12550E-05  3038   0.665E-03    0.812E-03
RMM:   4    -0.116266163314E+04    0.11943E-06   -0.29721E-06  2091   0.285E-03    0.631E-03
RMM:   5    -0.116266163298E+04    0.16873E-06   -0.10883E-06  1540   0.236E-03    0.257E-03
RMM:   6    -0.116266163300E+04   -0.19994E-07   -0.33828E-07   819   0.184E-03    0.727E-04
RMM:   7    -0.116266163300E+04   -0.75670E-08   -0.65432E-08   560   0.176E-03    0.440E-04
RMM:   8    -0.116266163301E+04   -0.43801E-08   -0.50057E-09   432   0.173E-03
  10 F= -.11626616E+04 E0= -.11626587E+04  d E =0.152323E-03  mag=     4.9651
       N       E                     dE             d eps       ncg     rms          rms(c)
DAV:   1    -0.116266141878E+04    0.21423E-03   -0.89241E-03  6016   0.108E-01    0.209E-02
RMM:   2    -0.116266143627E+04   -0.17496E-04   -0.19398E-04  3388   0.183E-02    0.139E-02
RMM:   3    -0.116266143801E+04   -0.17365E-05   -0.16988E-05  3055   0.800E-03    0.853E-03
RMM:   4    -0.116266143794E+04    0.64785E-07   -0.42992E-06  2302   0.324E-03    0.658E-03
RMM:   5    -0.116266143777E+04    0.17179E-06   -0.15407E-06  1698   0.259E-03    0.295E-03
RMM:   6    -0.116266143782E+04   -0.49389E-07   -0.60646E-07  1000   0.188E-03    0.864E-04
RMM:   7    -0.116266143784E+04   -0.17768E-07   -0.13727E-07   659   0.176E-03    0.515E-04
RMM:   8    -0.116266143784E+04   -0.38272E-08   -0.99517E-09   446   0.169E-03
  11 F= -.11626614E+04 E0= -.11626585E+04  d E =0.195164E-03  mag=     4.9651
       N       E                     dE             d eps       ncg     rms          rms(c)
DAV:   1    -0.116266119093E+04    0.24691E-03   -0.11798E-02  6016   0.123E-01    0.235E-02
RMM:   2    -0.116266121454E+04   -0.23613E-04   -0.25727E-04  3602   0.207E-02    0.152E-02
RMM:   3    -0.116266121641E+04   -0.18698E-05   -0.20503E-05  3066   0.891E-03    0.898E-03
RMM:   4    -0.116266121632E+04    0.89960E-07   -0.55280E-06  2508   0.349E-03    0.731E-03
RMM:   5    -0.116266121614E+04    0.18562E-06   -0.18830E-06  1840   0.268E-03    0.315E-03
RMM:   6    -0.116266121620E+04   -0.60900E-07   -0.57255E-07   994   0.186E-03    0.888E-04
RMM:   7    -0.116266121621E+04   -0.15498E-07   -0.14392E-07   717   0.180E-03    0.557E-04
RMM:   8    -0.116266121622E+04   -0.32596E-08   -0.73345E-09   448   0.169E-03
  12 F= -.11626612E+04 E0= -.11626583E+04  d E =0.221625E-03  mag=     4.9653
       N       E                     dE             d eps       ncg     rms          rms(c)
DAV:   1    -0.116266100700E+04    0.20922E-03   -0.86104E-03  6016   0.105E-01    0.229E-02
RMM:   2    -0.116266102429E+04   -0.17296E-04   -0.19153E-04  3402   0.181E-02    0.148E-02
RMM:   3    -0.116266102591E+04   -0.16171E-05   -0.16533E-05  3065   0.762E-03    0.922E-03
RMM:   4    -0.116266102571E+04    0.20396E-06   -0.43269E-06  2416   0.323E-03    0.738E-03
RMM:   5    -0.116266102551E+04    0.19996E-06   -0.18636E-06  1904   0.258E-03    0.334E-03
RMM:   6    -0.116266102557E+04   -0.63388E-07   -0.60821E-07  1146   0.190E-03    0.128E-03
RMM:   7    -0.116266102558E+04   -0.14508E-07   -0.12701E-07   805   0.179E-03    0.817E-04
RMM:   8    -0.116266102559E+04   -0.29540E-08   -0.90019E-09   489   0.171E-03
  13 F= -.11626610E+04 E0= -.11626582E+04  d E =0.190631E-03  mag=     4.9658
       N       E                     dE             d eps       ncg     rms          rms(c)
DAV:   1    -0.116266086430E+04    0.16128E-03   -0.56366E-03  5984   0.856E-02    0.176E-02
RMM:   2    -0.116266087550E+04   -0.11197E-04   -0.12550E-04  3217   0.148E-02    0.111E-02
RMM:   3    -0.116266087675E+04   -0.12543E-05   -0.11522E-05  3039   0.632E-03    0.720E-03
RMM:   4    -0.116266087663E+04    0.11806E-06   -0.25147E-06  1877   0.272E-03    0.523E-03
RMM:   5    -0.116266087643E+04    0.20437E-06   -0.94176E-07  1474   0.229E-03    0.230E-03
RMM:   6    -0.116266087644E+04   -0.53406E-08   -0.36749E-07   777   0.187E-03    0.701E-04
RMM:   7    -0.116266087645E+04   -0.13009E-07   -0.12383E-07   568   0.179E-03    0.404E-04
RMM:   8    -0.116266087645E+04   -0.34779E-08   -0.15002E-08   413   0.175E-03
  14 F= -.11626609E+04 E0= -.11626580E+04  d E =0.149135E-03  mag=     4.9657
       N       E                     dE             d eps       ncg     rms          rms(c)
DAV:   1    -0.116266071594E+04    0.16051E-03   -0.49801E-03  5808   0.804E-02    0.172E-02
RMM:   2    -0.116266072651E+04   -0.10565E-04   -0.11374E-04  3184   0.141E-02    0.106E-02
RMM:   3    -0.116266072776E+04   -0.12557E-05   -0.10383E-05  2994   0.595E-03    0.666E-03
RMM:   4    -0.116266072765E+04    0.10981E-06   -0.20118E-06  1735   0.261E-03    0.467E-03
RMM:   5    -0.116266072751E+04    0.14580E-06   -0.80030E-07  1350   0.220E-03    0.193E-03
RMM:   6    -0.116266072754E+04   -0.29875E-07   -0.34386E-07   758   0.185E-03    0.586E-04
RMM:   7    -0.116266072755E+04   -0.89640E-08   -0.73366E-08   536   0.177E-03    0.351E-04
RMM:   8    -0.116266072755E+04   -0.29395E-08   -0.98879E-09   396   0.175E-03
  15 F= -.11626607E+04 E0= -.11626579E+04  d E =0.148904E-03  mag=     4.9658
       N       E                     dE             d eps       ncg     rms          rms(c)
DAV:   1    -0.116266045364E+04    0.27390E-03   -0.13485E-02  6016   0.132E-01    0.260E-02
RMM:   2    -0.116266048234E+04   -0.28700E-04   -0.29840E-04  3706   0.224E-02    0.156E-02
RMM:   3    -0.116266048458E+04   -0.22420E-05   -0.22525E-05  3069   0.940E-03    0.911E-03
RMM:   4    -0.116266048454E+04    0.46566E-07   -0.60818E-06  2657   0.361E-03    0.697E-03
RMM:   5    -0.116266048436E+04    0.17317E-06   -0.18433E-06  1857   0.263E-03    0.304E-03
RMM:   6    -0.116266048443E+04   -0.69311E-07   -0.57600E-07   968   0.189E-03    0.845E-04
RMM:   7    -0.116266048445E+04   -0.19470E-07   -0.15822E-07   745   0.184E-03    0.540E-04
RMM:   8    -0.116266048446E+04   -0.38999E-08   -0.65580E-09   451   0.172E-03
  16 F= -.11626605E+04 E0= -.11626576E+04  d E =0.243091E-03  mag=     4.9660
       N       E                     dE             d eps       ncg     rms          rms(c)
DAV:   1    -0.116266037709E+04    0.10736E-03   -0.24782E-03  5760   0.566E-02    0.122E-02
RMM:   2    -0.116266038260E+04   -0.55061E-05   -0.57952E-05  3140   0.101E-02    0.791E-03
RMM:   3    -0.116266038334E+04   -0.74362E-06   -0.54653E-06  2649   0.430E-03    0.478E-03
RMM:   4    -0.116266038328E+04    0.55981E-07   -0.85074E-07  1179   0.207E-03    0.334E-03
RMM:   5    -0.116266038320E+04    0.86453E-07   -0.27297E-07   840   0.191E-03    0.130E-03
RMM:   6    -0.116266038320E+04   -0.35943E-08   -0.76418E-08   547   0.179E-03    0.382E-04
RMM:   7    -0.116266038320E+04   -0.31723E-08   -0.28715E-08   434   0.177E-03    0.217E-04
RMM:   8    -0.116266038321E+04   -0.16444E-08   -0.99736E-09   364   0.177E-03
  17 F= -.11626604E+04 E0= -.11626575E+04  d E =0.101252E-03  mag=     4.9661
       N       E                     dE             d eps       ncg     rms          rms(c)
DAV:   1    -0.116266018101E+04    0.20220E-03   -0.77447E-03  6016   0.100E-01    0.207E-02
RMM:   2    -0.116266019767E+04   -0.16667E-04   -0.16858E-04  3264   0.172E-02    0.128E-02
RMM:   3    -0.116266019963E+04   -0.19585E-05   -0.15031E-05  3043   0.727E-03    0.752E-03
RMM:   4    -0.116266019961E+04    0.22890E-07   -0.34765E-06  2209   0.302E-03    0.576E-03
RMM:   5    -0.116266019943E+04    0.17742E-06   -0.98942E-07  1432   0.236E-03    0.253E-03
RMM:   6    -0.116266019948E+04   -0.50306E-07   -0.65069E-07   983   0.194E-03    0.766E-04
RMM:   7    -0.116266019949E+04   -0.10448E-07   -0.86990E-08   568   0.177E-03    0.452E-04
RMM:   8    -0.116266019950E+04   -0.22119E-08   -0.32908E-09   401   0.172E-03
  18 F= -.11626602E+04 E0= -.11626573E+04  d E =0.183710E-03  mag=     4.9662
