       N       E                     dE             d eps       ncg     rms          rms(c)
DAV:   1    -0.116308458300E+04   -0.11631E+04   -0.25766E-05  3800   0.115E-02    0.140E-02
RMM:   2    -0.116308458333E+04   -0.32260E-06   -0.17819E-05  3332   0.574E-03    0.153E-02
RMM:   3    -0.116308458298E+04    0.34389E-06   -0.76499E-06  3039   0.381E-03    0.387E-03
RMM:   4    -0.116308458348E+04   -0.49654E-06   -0.38451E-06  2545   0.323E-03    0.421E-03
RMM:   5    -0.116308458392E+04   -0.43922E-06   -0.26438E-06  2035   0.269E-03    0.260E-03
RMM:   6    -0.116308458430E+04   -0.37930E-06   -0.16867E-06  1712   0.256E-03    0.182E-03
RMM:   7    -0.116308458475E+04   -0.44711E-06   -0.13206E-06  1494   0.223E-03    0.195E-03
RMM:   8    -0.116308458516E+04   -0.41751E-06   -0.11117E-06  1411   0.225E-03
   1 F= -.11630846E+04 E0= -.11630823E+04  d E =-.116308E+04  mag=     5.9622
       N       E                     dE             d eps       ncg     rms          rms(c)
DAV:   1    -0.116308633210E+04   -0.17474E-02   -0.26315E+00  6400   0.186E+00    0.469E-01
RMM:   2    -0.116309104496E+04   -0.47129E-02   -0.78370E-02  6146   0.359E-01    0.514E-01
RMM:   3    -0.116309049333E+04    0.55163E-03   -0.35250E-03  6366   0.103E-01    0.354E-01
RMM:   4    -0.116308998621E+04    0.50712E-03   -0.17949E-03  5889   0.458E-02    0.231E-01
RMM:   5    -0.116308969243E+04    0.29377E-03   -0.57927E-04  5279   0.311E-02    0.496E-02
RMM:   6    -0.116308968365E+04    0.87877E-05   -0.94275E-05  4039   0.127E-02    0.369E-02
RMM:   7    -0.116308968359E+04    0.56738E-07   -0.31930E-05  3601   0.942E-03    0.271E-02
RMM:   8    -0.116308968529E+04   -0.17023E-05   -0.23518E-05  3572   0.650E-03
   2 F= -.11630897E+04 E0= -.11630878E+04  d E =-.510013E-02  mag=     5.9698
       N       E                     dE             d eps       ncg     rms          rms(c)
DAV:   1    -0.116309269449E+04   -0.30109E-02   -0.51100E-01  6472   0.821E-01    0.224E-01
RMM:   2    -0.116309333853E+04   -0.64404E-03   -0.16756E-02  6152   0.167E-01    0.252E-01
RMM:   3    -0.116309318179E+04    0.15675E-03   -0.89528E-04  5874   0.529E-02    0.170E-01
RMM:   4    -0.116309302614E+04    0.15565E-03   -0.51323E-04  5267   0.241E-02    0.103E-01
RMM:   5    -0.116309293534E+04    0.90800E-04   -0.14668E-04  4136   0.178E-02    0.277E-02
RMM:   6    -0.116309293759E+04   -0.22540E-05   -0.39170E-05  3536   0.859E-03    0.232E-02
RMM:   7    -0.116309293870E+04   -0.11068E-05   -0.14075E-05  3295   0.602E-03    0.189E-02
RMM:   8    -0.116309294010E+04   -0.14072E-05   -0.10902E-05  3341   0.428E-03
   3 F= -.11630929E+04 E0= -.11630911E+04  d E =-.325481E-02  mag=     5.9696
       N       E                     dE             d eps       ncg     rms          rms(c)
DAV:   1    -0.116309413138E+04   -0.11927E-02   -0.54290E-01  6288   0.849E-01    0.157E-01
RMM:   2    -0.116309531361E+04   -0.11822E-02   -0.13695E-02  6257   0.146E-01    0.120E-01
RMM:   3    -0.116309528546E+04    0.28153E-04   -0.63688E-04  5240   0.485E-02    0.791E-02
RMM:   4    -0.116309524924E+04    0.36224E-04   -0.18411E-04  3808   0.166E-02    0.470E-02
RMM:   5    -0.116309523779E+04    0.11445E-04   -0.62664E-05  3576   0.116E-02    0.116E-02
RMM:   6    -0.116309524010E+04   -0.23090E-05   -0.20942E-05  3437   0.683E-03    0.919E-03
RMM:   7    -0.116309524131E+04   -0.12136E-05   -0.11030E-05  3225   0.486E-03    0.727E-03
RMM:   8    -0.116309524233E+04   -0.10207E-05   -0.71146E-06  3059   0.401E-03
   4 F= -.11630952E+04 E0= -.11630933E+04  d E =-.230223E-02  mag=     5.9682
       N       E                     dE             d eps       ncg     rms          rms(c)
DAV:   1    -0.116309620205E+04   -0.96073E-03   -0.34755E-01  6264   0.674E-01    0.127E-01
RMM:   2    -0.116309695736E+04   -0.75531E-03   -0.84996E-03  6314   0.113E-01    0.913E-02
RMM:   3    -0.116309693320E+04    0.24157E-04   -0.37080E-04  4470   0.365E-02    0.591E-02
RMM:   4    -0.116309691144E+04    0.21756E-04   -0.11143E-04  3580   0.137E-02    0.391E-02
RMM:   5    -0.116309690926E+04    0.21811E-05   -0.32568E-05  3475   0.886E-03    0.141E-02
RMM:   6    -0.116309691111E+04   -0.18447E-05   -0.15927E-05  3369   0.570E-03    0.102E-02
RMM:   7    -0.116309691198E+04   -0.87007E-06   -0.81895E-06  3036   0.475E-03    0.681E-03
RMM:   8    -0.116309691264E+04   -0.66160E-06   -0.53174E-06  2511   0.334E-03
   5 F= -.11630969E+04 E0= -.11630950E+04  d E =-.167031E-02  mag=     5.9685
       N       E                     dE             d eps       ncg     rms          rms(c)
DAV:   1    -0.116309620150E+04    0.71048E-03   -0.19192E+00  6304   0.158E+00    0.275E-01
RMM:   2    -0.116310048345E+04   -0.42820E-02   -0.45697E-02  6268   0.262E-01    0.176E-01
RMM:   3    -0.116310045053E+04    0.32925E-04   -0.22693E-03  6162   0.913E-02    0.115E-01
RMM:   4    -0.116310036495E+04    0.85583E-04   -0.59534E-04  5843   0.278E-02    0.609E-02
RMM:   5    -0.116310035953E+04    0.54162E-05   -0.13185E-04  3744   0.157E-02    0.163E-02
RMM:   6    -0.116310036489E+04   -0.53544E-05   -0.41358E-05  3533   0.978E-03    0.109E-02
RMM:   7    -0.116310036783E+04   -0.29475E-05   -0.26174E-05  3448   0.726E-03    0.886E-03
RMM:   8    -0.116310036979E+04   -0.19544E-05   -0.16603E-05  3305   0.599E-03
   6 F= -.11631004E+04 E0= -.11630984E+04  d E =-.345715E-02  mag=     5.9686
       N       E                     dE             d eps       ncg     rms          rms(c)
DAV:   1    -0.116309881507E+04    0.15528E-02   -0.20976E+00  6304   0.165E+00    0.294E-01
RMM:   2    -0.116310354890E+04   -0.47338E-02   -0.49866E-02  6375   0.273E-01    0.186E-01
RMM:   3    -0.116310350711E+04    0.41790E-04   -0.24176E-03  6262   0.905E-02    0.119E-01
RMM:   4    -0.116310340722E+04    0.99894E-04   -0.62213E-04  5898   0.287E-02    0.602E-02
RMM:   5    -0.116310340698E+04    0.23660E-06   -0.14819E-04  3778   0.163E-02    0.167E-02
RMM:   6    -0.116310341200E+04   -0.50140E-05   -0.43141E-05  3554   0.101E-02    0.107E-02
RMM:   7    -0.116310341546E+04   -0.34678E-05   -0.29058E-05  3455   0.735E-03    0.789E-03
RMM:   8    -0.116310341769E+04   -0.22278E-05   -0.17273E-05  3335   0.626E-03
   7 F= -.11631034E+04 E0= -.11631015E+04  d E =-.304791E-02  mag=     5.9684
       N       E                     dE             d eps       ncg     rms          rms(c)
DAV:   1    -0.116310111549E+04    0.23000E-02   -0.21162E+00  6336   0.166E+00    0.302E-01
RMM:   2    -0.116310592458E+04   -0.48091E-02   -0.50154E-02  6376   0.274E-01    0.190E-01
RMM:   3    -0.116310590068E+04    0.23897E-04   -0.24547E-03  6304   0.916E-02    0.121E-01
RMM:   4    -0.116310580084E+04    0.99840E-04   -0.60478E-04  5795   0.287E-02    0.622E-02
RMM:   5    -0.116310579953E+04    0.13041E-05   -0.15294E-04  3804   0.166E-02    0.175E-02
RMM:   6    -0.116310580463E+04   -0.50958E-05   -0.44184E-05  3550   0.106E-02    0.110E-02
RMM:   7    -0.116310580807E+04   -0.34425E-05   -0.29098E-05  3471   0.750E-03    0.914E-03
RMM:   8    -0.116310581032E+04   -0.22522E-05   -0.18129E-05  3351   0.650E-03
   8 F= -.11631058E+04 E0= -.11631039E+04  d E =-.239263E-02  mag=     5.9683
