       N       E                     dE             d eps       ncg     rms          rms(c)
DAV:   1     0.119926765694E+05    0.11993E+05   -0.42403E+05  6160   0.132E+03
DAV:   2     0.668926763639E+03   -0.11324E+05   -0.10121E+05  6144   0.377E+02
DAV:   3    -0.137664506991E+04   -0.20456E+04   -0.19722E+04  6624   0.166E+02
DAV:   4    -0.151072774943E+04   -0.13408E+03   -0.13185E+03  8128   0.447E+01
DAV:   5    -0.151914445423E+04   -0.84167E+01   -0.83818E+01 11040   0.102E+01    0.182E+02
RMM:   6    -0.117403044423E+04    0.34511E+03   -0.16191E+03  6248   0.350E+01    0.110E+02
RMM:   7    -0.115965164266E+04    0.14379E+02   -0.58298E+01  6401   0.109E+01    0.652E+01
RMM:   8    -0.116352494369E+04   -0.38733E+01   -0.20532E+01  6803   0.515E+00    0.289E+01
RMM:   9    -0.116703164208E+04   -0.35067E+01   -0.64132E+00  6484   0.301E+00    0.129E+01
RMM:  10    -0.116828188265E+04   -0.12502E+01   -0.15173E+00  7116   0.132E+00    0.729E+00
RMM:  11    -0.116928743924E+04   -0.10056E+01   -0.10187E+00  7147   0.875E-01    0.452E+00
RMM:  12    -0.117022946367E+04   -0.94202E+00   -0.10004E+00  6462   0.950E-01    0.342E+00
RMM:  13    -0.117037051762E+04   -0.14105E+00   -0.28147E-01  7017   0.550E-01    0.254E+00
RMM:  14    -0.117043612871E+04   -0.65611E-01   -0.14010E-01  7232   0.357E-01    0.122E+00
RMM:  15    -0.117050243543E+04   -0.66307E-01   -0.56044E-02  7381   0.226E-01    0.492E+00
RMM:  16    -0.117047717666E+04    0.25259E-01   -0.10538E-02  8240   0.128E-01    0.359E+00
RMM:  17    -0.117047478604E+04    0.23906E-02   -0.17027E-02  6991   0.115E-01    0.315E+00
RMM:  18    -0.117047049743E+04    0.42886E-02   -0.84671E-03  6728   0.966E-02    0.290E+00
RMM:  19    -0.117047413427E+04   -0.36368E-02   -0.20231E-03  6416   0.581E-02    0.276E+00
RMM:  20    -0.117048109181E+04   -0.69575E-02   -0.46005E-03  6208   0.792E-02    0.327E+00
RMM:  21    -0.117048023488E+04    0.85693E-03   -0.11830E-03  5643   0.435E-02    0.283E+00
RMM:  22    -0.117047699809E+04    0.32368E-02   -0.66998E-04  5286   0.413E-02    0.241E+00
RMM:  23    -0.117046554710E+04    0.11451E-01   -0.42411E-03  6137   0.689E-02    0.623E-01
RMM:  24    -0.117046585998E+04   -0.31288E-03   -0.16211E-03  5684   0.462E-02    0.160E-01
RMM:  25    -0.117046603361E+04   -0.17363E-03   -0.37819E-04  4557   0.243E-02    0.153E-01
RMM:  26    -0.117046599308E+04    0.40535E-04   -0.89549E-05  4066   0.153E-02
   1 F= -.11704660E+04 E0= -.11704600E+04  d E =-.117047E+04  mag=     5.7849
       N       E                     dE             d eps       ncg     rms          rms(c)
DAV:   1    -0.116257656808E+04    0.78895E+01   -0.10236E+03  6528   0.316E+01    0.167E+01
RMM:   2    -0.116928809088E+04   -0.67115E+01   -0.82460E+01  6162   0.720E+00    0.117E+01
RMM:   3    -0.116869744138E+04    0.59065E+00   -0.40675E+00  6362   0.218E+00    0.741E+00
RMM:   4    -0.116864339439E+04    0.54047E-01   -0.16242E+00  6915   0.843E-01    0.498E+00
RMM:   5    -0.116847723660E+04    0.16616E+00   -0.41281E-01  6470   0.444E-01    0.197E+00
RMM:   6    -0.116847710286E+04    0.13374E-03   -0.53745E-02  8088   0.197E-01    0.108E+00
RMM:   7    -0.116847359793E+04    0.35049E-02   -0.26880E-02  8474   0.106E-01    0.628E-01
RMM:   8    -0.116847529437E+04   -0.16964E-02   -0.95872E-03  7889   0.736E-02    0.330E-01
RMM:   9    -0.116847474211E+04    0.55226E-03   -0.33832E-03  7241   0.441E-02    0.219E-01
RMM:  10    -0.116847482121E+04   -0.79099E-04   -0.20299E-03  6664   0.302E-02    0.117E-01
RMM:  11    -0.116847492481E+04   -0.10360E-03   -0.63048E-04  5567   0.200E-02    0.843E-02
RMM:  12    -0.116847493626E+04   -0.11452E-04   -0.31268E-04  4710   0.141E-02
   2 F= -.11684749E+04 E0= -.11684636E+04  d E =0.199106E+01  mag=     5.7188
       N       E                     dE             d eps       ncg     rms          rms(c)
DAV:   1    -0.116984075194E+04   -0.13658E+01   -0.18327E+02  6688   0.110E+01    0.797E+00
RMM:   2    -0.117017764018E+04   -0.33689E+00   -0.66780E+00  6149   0.269E+00    0.738E+00
RMM:   3    -0.117011345941E+04    0.64181E-01   -0.45831E-01  6441   0.757E-01    0.482E+00
RMM:   4    -0.117013914237E+04   -0.25683E-01   -0.47082E-01  6231   0.540E-01    0.384E+00
RMM:   5    -0.117002349857E+04    0.11564E+00   -0.15325E-01  6301   0.362E-01    0.105E+00
RMM:   6    -0.117002303314E+04    0.46544E-03   -0.18417E-02  6769   0.144E-01    0.693E-01
RMM:   7    -0.117002473211E+04   -0.16990E-02   -0.73741E-03  7078   0.735E-02    0.537E-01
RMM:   8    -0.117003249515E+04   -0.77630E-02   -0.72650E-03  6306   0.896E-02    0.856E-01
RMM:   9    -0.117003005596E+04    0.24392E-02   -0.21278E-03  5688   0.487E-02    0.699E-01
RMM:  10    -0.117002824570E+04    0.18103E-02   -0.21675E-03  5663   0.426E-02    0.704E-01
RMM:  11    -0.117002531985E+04    0.29259E-02   -0.28176E-03  5763   0.522E-02    0.597E-01
RMM:  12    -0.117002575113E+04   -0.43128E-03   -0.91749E-03  6016   0.104E-01    0.116E+00
RMM:  13    -0.117002629546E+04   -0.54433E-03   -0.18378E-03  5874   0.404E-02    0.122E+00
RMM:  14    -0.117002475580E+04    0.15397E-02   -0.92635E-04  4978   0.347E-02    0.907E-01
RMM:  15    -0.117002351180E+04    0.12440E-02   -0.22177E-03  5585   0.491E-02    0.612E-01
RMM:  16    -0.117002206174E+04    0.14501E-02   -0.31940E-03  5817   0.569E-02    0.207E-01
RMM:  17    -0.117002218873E+04   -0.12699E-03   -0.94561E-04  5352   0.287E-02    0.884E-02
RMM:  18    -0.117002235058E+04   -0.16185E-03   -0.11570E-04  3905   0.147E-02    0.977E-02
RMM:  19    -0.117002254265E+04   -0.19207E-03   -0.11220E-04  3849   0.113E-02    0.166E-01
RMM:  20    -0.117002262217E+04   -0.79522E-04   -0.68851E-05  3679   0.121E-02
   3 F= -.11700226E+04 E0= -.11700119E+04  d E =-.154769E+01  mag=     5.2200
       N       E                     dE             d eps       ncg     rms          rms(c)
DAV:   1    -0.117060340200E+04   -0.58086E+00   -0.84428E+01  6384   0.922E+00    0.325E+00
RMM:   2    -0.117079981055E+04   -0.19641E+00   -0.25166E+00  6148   0.174E+00    0.296E+00
RMM:   3    -0.117078630783E+04    0.13503E-01   -0.12940E-01  6389   0.464E-01    0.208E+00
RMM:   4    -0.117079970398E+04   -0.13396E-01   -0.57810E-02  6678   0.252E-01    0.255E+00
RMM:   5    -0.117080831318E+04   -0.86092E-02   -0.12962E-02  6748   0.119E-01    0.297E+00
RMM:   6    -0.117078519541E+04    0.23118E-01   -0.90605E-02  6129   0.280E-01    0.259E+00
RMM:   7    -0.117077420367E+04    0.10992E-01   -0.21952E-02  6359   0.150E-01    0.212E+00
RMM:   8    -0.117083021518E+04   -0.56012E-01   -0.10029E-02  6064   0.118E-01    0.613E+00
RMM:   9    -0.117079121015E+04    0.39005E-01   -0.21348E-02  6320   0.177E-01    0.420E+00
RMM:  10    -0.117081018473E+04   -0.18975E-01   -0.32730E-03  5710   0.806E-02    0.511E+00
RMM:  11    -0.117081929991E+04   -0.91152E-02   -0.16946E-03  5423   0.497E-02    0.557E+00
RMM:  12    -0.117081709078E+04    0.22091E-02   -0.78088E-04  4989   0.479E-02    0.545E+00
RMM:  13    -0.117081618887E+04    0.90191E-03   -0.41738E-04  4438   0.366E-02    0.533E+00
RMM:  14    -0.117082728892E+04   -0.11100E-01   -0.85397E-04  4989   0.430E-02    0.574E+00
RMM:  15    -0.117082148346E+04    0.58055E-02   -0.19418E-04  3901   0.249E-02    0.563E+00
RMM:  16    -0.117079198777E+04    0.29496E-01   -0.26884E-03  5520   0.628E-02    0.394E+00
RMM:  17    -0.117079655770E+04   -0.45699E-02   -0.21051E-03  5653   0.622E-02    0.414E+00
RMM:  18    -0.117079066518E+04    0.58925E-02   -0.90157E-04  5154   0.373E-02    0.378E+00
RMM:  19    -0.117077616135E+04    0.14504E-01   -0.28485E-03  5571   0.667E-02    0.277E+00
RMM:  20    -0.117075152340E+04    0.24638E-01   -0.19710E-02  6295   0.146E-01    0.631E-01
RMM:  21    -0.117074305759E+04    0.84658E-02   -0.14212E-02  6464   0.129E-01    0.649E-01
RMM:  22    -0.117074301092E+04    0.46664E-04   -0.34176E-03  6250   0.519E-02    0.791E-01
RMM:  23    -0.117074483535E+04   -0.18244E-02   -0.35374E-04  4552   0.228E-02    0.802E-01
RMM:  24    -0.117075490324E+04   -0.10068E-01   -0.38137E-03  5604   0.917E-02    0.700E-01
RMM:  25    -0.117075711813E+04   -0.22149E-02   -0.11733E-02  6079   0.145E-01    0.325E-01
RMM:  26    -0.117075956149E+04   -0.24434E-02   -0.61058E-03  6095   0.839E-02    0.396E-01
RMM:  27    -0.117075930572E+04    0.25577E-03   -0.13864E-03  5195   0.548E-02    0.171E-01
RMM:  28    -0.117075914570E+04    0.16002E-03   -0.14333E-04  3899   0.152E-02    0.133E-01
RMM:  29    -0.117075898888E+04    0.15682E-03   -0.20523E-04  3890   0.143E-02    0.149E-01
RMM:  30    -0.117075880807E+04    0.18082E-03   -0.35707E-05  3492   0.931E-03    0.143E-01
RMM:  31    -0.117075864314E+04    0.16492E-03   -0.22236E-05  3133   0.639E-03    0.144E-01
RMM:  32    -0.117075847356E+04    0.16958E-03   -0.15125E-05  2992   0.559E-03    0.128E-01
RMM:  33    -0.117075835016E+04    0.12340E-03   -0.67190E-06  2654   0.361E-03    0.122E-01
RMM:  34    -0.117075829990E+04    0.50265E-04   -0.27351E-06  2106   0.255E-03
   4 F= -.11707583E+04 E0= -.11707473E+04  d E =-.735678E+00  mag=     5.0015
       N       E                     dE             d eps       ncg     rms          rms(c)
DAV:   1    -0.117105923562E+04   -0.30089E+00   -0.34493E+01  6480   0.580E+00    0.225E+00
RMM:   2    -0.117114014380E+04   -0.80908E-01   -0.96871E-01  6146   0.105E+00    0.214E+00
RMM:   3    -0.117113119876E+04    0.89450E-02   -0.52996E-02  6636   0.265E-01    0.134E+00
RMM:   4    -0.117113113971E+04    0.59044E-04   -0.22628E-02  6403   0.146E-01    0.691E-01
RMM:   5    -0.117112973382E+04    0.14059E-02   -0.67320E-03  6134   0.925E-02    0.326E-01
RMM:   6    -0.117113072732E+04   -0.99350E-03   -0.13504E-03  6079   0.372E-02    0.257E-01
RMM:   7    -0.117113198770E+04   -0.12604E-02   -0.13631E-03  5439   0.379E-02    0.380E-01
RMM:   8    -0.117113090915E+04    0.10785E-02   -0.66866E-04  4669   0.293E-02    0.301E-01
RMM:   9    -0.117112956640E+04    0.13428E-02   -0.19194E-03  5377   0.423E-02    0.321E-01
RMM:  10    -0.117112948200E+04    0.84394E-04   -0.14970E-04  3896   0.147E-02
   5 F= -.11711295E+04 E0= -.11711218E+04  d E =-.371182E+00  mag=     4.9449
       N       E                     dE             d eps       ncg     rms          rms(c)
DAV:   1    -0.117134471646E+04   -0.21515E+00   -0.33459E+01  6368   0.556E+00    0.228E+00
RMM:   2    -0.117142340809E+04   -0.78692E-01   -0.96613E-01  6144   0.103E+00    0.188E+00
RMM:   3    -0.117141749468E+04    0.59134E-02   -0.59741E-02  6590   0.276E-01    0.110E+00
RMM:   4    -0.117141873281E+04   -0.12381E-02   -0.25964E-02  6533   0.159E-01    0.944E-01
RMM:   5    -0.117142235815E+04   -0.36253E-02   -0.13773E-02  6316   0.124E-01    0.138E+00
RMM:   6    -0.117141853923E+04    0.38189E-02   -0.42276E-03  6118   0.657E-02    0.123E+00
RMM:   7    -0.117141413504E+04    0.44042E-02   -0.10250E-02  6213   0.964E-02    0.952E-01
RMM:   8    -0.117141545756E+04   -0.13225E-02   -0.53402E-02  6436   0.227E-01    0.172E+00
RMM:   9    -0.117141390108E+04    0.15565E-02   -0.28625E-03  5723   0.705E-02    0.120E+00
RMM:  10    -0.117142007730E+04   -0.61762E-02   -0.47066E-03  5949   0.622E-02    0.188E+00
RMM:  11    -0.117142175882E+04   -0.16815E-02   -0.41055E-04  4560   0.266E-02    0.189E+00
RMM:  12    -0.117141235173E+04    0.94071E-02   -0.88511E-04  5117   0.349E-02    0.125E+00
RMM:  13    -0.117140794412E+04    0.44076E-02   -0.12740E-03  5359   0.350E-02    0.808E-01
RMM:  14    -0.117140556645E+04    0.23777E-02   -0.83243E-04  5177   0.394E-02    0.789E-01
RMM:  15    -0.117140658694E+04   -0.10205E-02   -0.41408E-04  4548   0.256E-02    0.966E-01
RMM:  16    -0.117140532281E+04    0.12641E-02   -0.19226E-04  4005   0.215E-02    0.860E-01
RMM:  17    -0.117140366521E+04    0.16576E-02   -0.71783E-04  5136   0.249E-02    0.611E-01
RMM:  18    -0.117140289828E+04    0.76692E-03   -0.58308E-04  4900   0.242E-02    0.435E-01
RMM:  19    -0.117140261670E+04    0.28158E-03   -0.38122E-04  4772   0.198E-02    0.351E-01
RMM:  20    -0.117140264207E+04   -0.25372E-04   -0.36109E-04  4804   0.204E-02
   6 F= -.11714026E+04 E0= -.11713884E+04  d E =-.273160E+00  mag=     4.6697
       N       E                     dE             d eps       ncg     rms          rms(c)
DAV:   1    -0.117147764435E+04   -0.75028E-01   -0.18557E+01  6384   0.444E+00    0.147E+00
RMM:   2    -0.117152208056E+04   -0.44436E-01   -0.50063E-01  6146   0.783E-01    0.127E+00
RMM:   3    -0.117152020902E+04    0.18715E-02   -0.28135E-02  6526   0.212E-01    0.936E-01
RMM:   4    -0.117151933593E+04    0.87309E-03   -0.57315E-03  7004   0.760E-02    0.554E-01
RMM:   5    -0.117151947253E+04   -0.13660E-03   -0.40363E-03  6195   0.613E-02    0.321E-01
RMM:   6    -0.117151993565E+04   -0.46313E-03   -0.13227E-03  5552   0.409E-02    0.165E-01
RMM:   7    -0.117152031265E+04   -0.37699E-03   -0.35448E-04  4742   0.210E-02    0.128E-01
RMM:   8    -0.117152082262E+04   -0.50998E-03   -0.15208E-04  4151   0.147E-02    0.134E-01
RMM:   9    -0.117152028094E+04    0.54168E-03   -0.14356E-04  3869   0.167E-02    0.124E-01
RMM:  10    -0.117151978867E+04    0.49227E-03   -0.19148E-04  4179   0.159E-02    0.104E-01
RMM:  11    -0.117151941013E+04    0.37854E-03   -0.46805E-04  4991   0.250E-02    0.975E-02
RMM:  12    -0.117151938480E+04    0.25328E-04   -0.11202E-04  3859   0.145E-02
   7 F= -.11715194E+04 E0= -.11715090E+04  d E =-.116743E+00  mag=     4.5037
       N       E                     dE             d eps       ncg     rms          rms(c)
DAV:   1    -0.117154196745E+04   -0.22557E-01   -0.63700E+00  6384   0.265E+00    0.551E-01
RMM:   2    -0.117155496361E+04   -0.12996E-01   -0.14326E-01  6145   0.415E-01    0.401E-01
RMM:   3    -0.117155506874E+04   -0.10514E-03   -0.73707E-03  6197   0.131E-01    0.273E-01
RMM:   4    -0.117155510230E+04   -0.33564E-04   -0.19000E-03  6182   0.445E-02    0.286E-01
RMM:   5    -0.117155538715E+04   -0.28485E-03   -0.83641E-04  5398   0.312E-02    0.131E-01
RMM:   6    -0.117155576394E+04   -0.37679E-03   -0.27959E-04  4627   0.217E-02    0.106E-01
RMM:   7    -0.117155597681E+04   -0.21287E-03   -0.10682E-04  3850   0.133E-02    0.115E-01
RMM:   8    -0.117155590355E+04    0.73258E-04   -0.31358E-05  3518   0.914E-03
   8 F= -.11715559E+04 E0= -.11715472E+04  d E =-.365188E-01  mag=     4.2977
       N       E                     dE             d eps       ncg     rms          rms(c)
DAV:   1    -0.117159214861E+04   -0.36172E-01   -0.18974E+01  6384   0.456E+00    0.105E+00
RMM:   2    -0.117163272597E+04   -0.40577E-01   -0.44942E-01  6145   0.738E-01    0.849E-01
RMM:   3    -0.117163421120E+04   -0.14852E-02   -0.27608E-02  6266   0.243E-01    0.865E-01
RMM:   4    -0.117163532123E+04   -0.11100E-02   -0.51468E-03  7767   0.704E-02    0.830E-01
RMM:   5    -0.117165171946E+04   -0.16398E-01   -0.10220E-02  6327   0.106E-01    0.199E+00
RMM:   6    -0.117164384092E+04    0.78785E-02   -0.43355E-03  5657   0.768E-02    0.158E+00
RMM:   7    -0.117163373382E+04    0.10107E-01   -0.89299E-03  6159   0.948E-02    0.959E-01
RMM:   8    -0.117163296253E+04    0.77129E-03   -0.74342E-03  6152   0.888E-02    0.103E+00
RMM:   9    -0.117163382200E+04   -0.85947E-03   -0.71773E-04  5108   0.305E-02    0.105E+00
RMM:  10    -0.117163379732E+04    0.24675E-04   -0.86113E-05  3849   0.141E-02
   9 F= -.11716338E+04 E0= -.11716263E+04  d E =-.778938E-01  mag=     4.1464
       N       E                     dE             d eps       ncg     rms          rms(c)
DAV:   1    -0.117157793417E+04    0.55888E-01   -0.77985E+01  6304   0.949E+00    0.226E+00
RMM:   2    -0.117175340341E+04   -0.17547E+00   -0.21039E+00  6145   0.163E+00    0.281E+00
RMM:   3    -0.117175738401E+04   -0.39806E-02   -0.10687E-01  6433   0.506E-01    0.165E+00
RMM:   4    -0.117175517906E+04    0.22050E-02   -0.28555E-02  7736   0.176E-01    0.143E+00
RMM:   5    -0.117176451000E+04   -0.93309E-02   -0.24490E-02  6855   0.154E-01    0.221E+00
RMM:   6    -0.117175417229E+04    0.10338E-01   -0.17558E-02  6459   0.133E-01    0.173E+00
RMM:   7    -0.117174412844E+04    0.10044E-01   -0.23026E-02  6439   0.143E-01    0.124E+00
RMM:   8    -0.117174814798E+04   -0.40195E-02   -0.75358E-02  6403   0.263E-01    0.212E+00
RMM:   9    -0.117174620111E+04    0.19469E-02   -0.48431E-03  6342   0.770E-02    0.171E+00
RMM:  10    -0.117175154532E+04   -0.53442E-02   -0.47245E-03  6092   0.672E-02    0.235E+00
RMM:  11    -0.117175378940E+04   -0.22441E-02   -0.40794E-04  4917   0.235E-02    0.237E+00
RMM:  12    -0.117174591336E+04    0.78760E-02   -0.13728E-03  5204   0.374E-02    0.172E+00
RMM:  13    -0.117174044208E+04    0.54713E-02   -0.85291E-04  5211   0.324E-02    0.136E+00
RMM:  14    -0.117174066983E+04   -0.22775E-03   -0.13593E-04  3914   0.160E-02    0.139E+00
RMM:  15    -0.117174137298E+04   -0.70316E-03   -0.52259E-05  3573   0.975E-03    0.143E+00
RMM:  16    -0.117173424619E+04    0.71268E-02   -0.45168E-03  5957   0.656E-02    0.888E-01
RMM:  17    -0.117173090726E+04    0.33389E-02   -0.11038E-03  5284   0.381E-02    0.773E-01
RMM:  18    -0.117172313078E+04    0.77765E-02   -0.51815E-03  6047   0.785E-02    0.626E-01
RMM:  19    -0.117172184154E+04    0.12892E-02   -0.82055E-04  5212   0.310E-02    0.702E-01
RMM:  20    -0.117172291931E+04   -0.10778E-02   -0.13032E-04  3901   0.168E-02    0.638E-01
RMM:  21    -0.117172802175E+04   -0.51024E-02   -0.27877E-03  5425   0.607E-02    0.685E-01
RMM:  22    -0.117173477419E+04   -0.67524E-02   -0.61948E-03  5974   0.932E-02    0.881E-01
RMM:  23    -0.117174791880E+04   -0.13145E-01   -0.48086E-03  5825   0.756E-02    0.197E+00
RMM:  24    -0.117173845331E+04    0.94655E-02   -0.11854E-03  5239   0.442E-02    0.114E+00
RMM:  25    -0.117173962220E+04   -0.11689E-02   -0.33245E-04  4405   0.225E-02    0.118E+00
RMM:  26    -0.117173188675E+04    0.77354E-02   -0.40066E-03  5893   0.682E-02    0.300E-01
RMM:  27    -0.117173126303E+04    0.62372E-03   -0.44186E-04  4696   0.276E-02    0.247E-01
RMM:  28    -0.117172976381E+04    0.14992E-02   -0.29261E-04  4383   0.219E-02    0.219E-01
RMM:  29    -0.117172917076E+04    0.59305E-03   -0.99741E-05  3794   0.129E-02    0.239E-01
RMM:  30    -0.117172876832E+04    0.40244E-03   -0.47081E-05  3483   0.835E-03    0.245E-01
RMM:  31    -0.117172799771E+04    0.77062E-03   -0.88386E-05  3843   0.119E-02    0.285E-01
RMM:  32    -0.117172726629E+04    0.73142E-03   -0.10385E-04  3849   0.118E-02    0.282E-01
RMM:  33    -0.117172706633E+04    0.19996E-03   -0.47447E-05  3540   0.824E-03    0.292E-01
RMM:  34    -0.117172647783E+04    0.58850E-03   -0.97811E-05  3792   0.124E-02    0.275E-01
RMM:  35    -0.117172481009E+04    0.16677E-02   -0.49191E-04  5022   0.231E-02    0.305E-01
RMM:  36    -0.117172372649E+04    0.10836E-02   -0.31112E-04  4505   0.202E-02    0.326E-01
RMM:  37    -0.117172303163E+04    0.69486E-03   -0.16207E-04  4084   0.133E-02    0.332E-01
RMM:  38    -0.117172271107E+04    0.32055E-03   -0.63383E-05  3518   0.842E-03    0.330E-01
RMM:  39    -0.117172502903E+04   -0.23180E-02   -0.60619E-04  4927   0.314E-02    0.277E-01
RMM:  40    -0.117172940074E+04   -0.43717E-02   -0.36721E-03  5897   0.688E-02
  10 F= -.11717294E+04 E0= -.11717206E+04  d E =-.956034E-01  mag=     4.0163
       N       E                     dE             d eps       ncg     rms          rms(c)
DAV:   1    -0.117163195560E+04    0.93073E-01   -0.26233E+01  6320   0.539E+00    0.111E+00
RMM:   2    -0.117168838425E+04   -0.56429E-01   -0.62285E-01  6146   0.874E-01    0.143E+00
RMM:   3    -0.117168921732E+04   -0.83307E-03   -0.34029E-02  6240   0.287E-01    0.587E-01
RMM:   4    -0.117168792527E+04    0.12921E-02   -0.77774E-03  7145   0.874E-02    0.398E-01
RMM:   5    -0.117168770843E+04    0.21684E-03   -0.40040E-03  6009   0.635E-02    0.378E-01
RMM:   6    -0.117168880765E+04   -0.10992E-02   -0.20638E-03  5645   0.498E-02    0.224E-01
RMM:   7    -0.117168948023E+04   -0.67258E-03   -0.54091E-04  4859   0.273E-02    0.269E-01
RMM:   8    -0.117168789867E+04    0.15816E-02   -0.16328E-03  5264   0.463E-02    0.186E-01
RMM:   9    -0.117168705304E+04    0.84563E-03   -0.22117E-03  5475   0.484E-02    0.251E-01
RMM:  10    -0.117168722780E+04   -0.17476E-03   -0.12375E-04  3873   0.141E-02    0.253E-01
RMM:  11    -0.117168726573E+04   -0.37923E-04   -0.30687E-05  3514   0.852E-03
  11 F= -.11716873E+04 E0= -.11716801E+04  d E =0.421350E-01  mag=     4.0185
       N       E                     dE             d eps       ncg     rms          rms(c)
DAV:   1    -0.117169369351E+04   -0.64657E-02   -0.95076E+00  6352   0.342E+00    0.921E-01
RMM:   2    -0.117171295882E+04   -0.19265E-01   -0.27463E-01  6144   0.625E-01    0.109E+00
RMM:   3    -0.117171167858E+04    0.12802E-02   -0.13985E-02  6453   0.170E-01    0.740E-01
RMM:   4    -0.117171010041E+04    0.15782E-02   -0.32793E-03  6575   0.597E-02    0.505E-01
RMM:   5    -0.117170934779E+04    0.75263E-03   -0.37424E-03  6070   0.616E-02    0.275E-01
RMM:   6    -0.117170954936E+04   -0.20158E-03   -0.56301E-04  5130   0.351E-02    0.951E-02
RMM:   7    -0.117170959133E+04   -0.41969E-04   -0.15137E-04  4050   0.139E-02    0.121E-01
RMM:   8    -0.117170969234E+04   -0.10101E-03   -0.81611E-05  3716   0.103E-02    0.994E-02
RMM:   9    -0.117170984871E+04   -0.15637E-03   -0.16349E-04  3855   0.146E-02    0.127E-01
RMM:  10    -0.117170988603E+04   -0.37317E-04   -0.42701E-05  3575   0.741E-03
  12 F= -.11717099E+04 E0= -.11717028E+04  d E =-.226203E-01  mag=     4.0255
       N       E                     dE             d eps       ncg     rms          rms(c)
DAV:   1    -0.117172698273E+04   -0.17134E-01   -0.17857E+00  6352   0.146E+00    0.699E-01
RMM:   2    -0.117173244385E+04   -0.54611E-02   -0.60415E-02  6144   0.295E-01    0.753E-01
RMM:   3    -0.117173379731E+04   -0.13535E-02   -0.66121E-03  6194   0.105E-01    0.849E-01
RMM:   4    -0.117173240443E+04    0.13929E-02   -0.18459E-03  5810   0.470E-02    0.791E-01
RMM:   5    -0.117173178405E+04    0.62038E-03   -0.28632E-04  4360   0.176E-02    0.792E-01
RMM:   6    -0.117173085313E+04    0.93092E-03   -0.43512E-04  4569   0.195E-02    0.732E-01
RMM:   7    -0.117172792905E+04    0.29241E-02   -0.15129E-02  6183   0.132E-01    0.928E-01
RMM:   8    -0.117173023800E+04   -0.23089E-02   -0.19153E-03  5620   0.517E-02    0.127E+00
RMM:   9    -0.117173418230E+04   -0.39443E-02   -0.45784E-03  6237   0.643E-02    0.168E+00
RMM:  10    -0.117173695159E+04   -0.27693E-02   -0.13880E-03  5369   0.399E-02    0.202E+00
RMM:  11    -0.117173260183E+04    0.43498E-02   -0.38265E-03  5615   0.640E-02    0.133E+00
RMM:  12    -0.117172918838E+04    0.34134E-02   -0.43986E-03  6155   0.650E-02    0.699E-01
RMM:  13    -0.117172870577E+04    0.48261E-03   -0.34023E-03  5888   0.574E-02    0.388E-01
RMM:  14    -0.117172906286E+04   -0.35709E-03   -0.69263E-04  5060   0.245E-02    0.361E-01
RMM:  15    -0.117172820824E+04    0.85462E-03   -0.59000E-04  4583   0.285E-02    0.348E-01
RMM:  16    -0.117172750175E+04    0.70649E-03   -0.40783E-03  5809   0.626E-02    0.564E-01
RMM:  17    -0.117172634795E+04    0.11538E-02   -0.56175E-04  4783   0.284E-02    0.466E-01
RMM:  18    -0.117172524799E+04    0.11000E-02   -0.23095E-04  4262   0.189E-02    0.306E-01
RMM:  19    -0.117172474183E+04    0.50616E-03   -0.21200E-04  4077   0.171E-02    0.296E-01
RMM:  20    -0.117172441756E+04    0.32427E-03   -0.89921E-05  3680   0.126E-02    0.249E-01
RMM:  21    -0.117172432230E+04    0.95258E-04   -0.49727E-05  3493   0.747E-03
  13 F= -.11717243E+04 E0= -.11717165E+04  d E =-.144363E-01  mag=     4.0162
       N       E                     dE             d eps       ncg     rms          rms(c)
DAV:   1    -0.117172584059E+04   -0.14230E-02   -0.88944E+00  6256   0.343E+00    0.645E-01
RMM:   2    -0.117174478384E+04   -0.18943E-01   -0.22083E-01  6150   0.574E-01    0.570E-01
RMM:   3    -0.117174467333E+04    0.11052E-03   -0.10821E-02  6140   0.179E-01    0.378E-01
RMM:   4    -0.117174434585E+04    0.32748E-03   -0.21513E-03  7858   0.478E-02    0.260E-01
RMM:   5    -0.117174411807E+04    0.22778E-03   -0.12546E-03  5996   0.348E-02    0.194E-01
RMM:   6    -0.117174431417E+04   -0.19610E-03   -0.97870E-04  5575   0.339E-02    0.125E-01
RMM:   7    -0.117174443188E+04   -0.11771E-03   -0.15238E-04  3939   0.176E-02    0.670E-02
RMM:   8    -0.117174457333E+04   -0.14145E-03   -0.78987E-05  3655   0.104E-02    0.631E-02
RMM:   9    -0.117174483046E+04   -0.25713E-03   -0.13026E-04  3803   0.149E-02    0.756E-02
RMM:  10    -0.117174486807E+04   -0.37610E-04   -0.40740E-05  3526   0.770E-03
  14 F= -.11717449E+04 E0= -.11717380E+04  d E =-.205458E-01  mag=     4.0258
       N       E                     dE             d eps       ncg     rms          rms(c)
DAV:   1    -0.117175044806E+04   -0.56176E-02   -0.10973E+00  6432   0.120E+00    0.333E-01
RMM:   2    -0.117175328653E+04   -0.28385E-02   -0.30388E-02  6144   0.218E-01    0.325E-01
RMM:   3    -0.117175357210E+04   -0.28557E-03   -0.19615E-03  5981   0.683E-02    0.325E-01
RMM:   4    -0.117175354386E+04    0.28241E-04   -0.24749E-04  4282   0.179E-02    0.312E-01
RMM:   5    -0.117175350101E+04    0.42849E-04   -0.88823E-05  3721   0.121E-02    0.380E-01
RMM:   6    -0.117175385008E+04   -0.34907E-03   -0.14423E-04  3849   0.147E-02    0.298E-01
RMM:   7    -0.117175563565E+04   -0.17856E-02   -0.14028E-03  5449   0.398E-02    0.421E-01
RMM:   8    -0.117175696484E+04   -0.13292E-02   -0.13989E-03  5239   0.385E-02    0.482E-01
RMM:   9    -0.117175550554E+04    0.14593E-02   -0.11409E-03  5061   0.362E-02    0.430E-01
RMM:  10    -0.117175381001E+04    0.16955E-02   -0.30367E-03  5716   0.548E-02    0.368E-01
RMM:  11    -0.117175335665E+04    0.45336E-03   -0.66098E-04  4908   0.279E-02    0.366E-01
RMM:  12    -0.117175335111E+04    0.55355E-05   -0.74509E-05  3676   0.961E-03
  15 F= -.11717534E+04 E0= -.11717469E+04  d E =-.848304E-02  mag=     4.0299
       N       E                     dE             d eps       ncg     rms          rms(c)
DAV:   1    -0.117175039509E+04    0.29616E-02   -0.68312E+00  6392   0.300E+00    0.621E-01
RMM:   2    -0.117176773080E+04   -0.17336E-01   -0.17311E-01  6146   0.513E-01    0.843E-01
RMM:   3    -0.117176883491E+04   -0.11041E-02   -0.84747E-03  6248   0.160E-01    0.612E-01
RMM:   4    -0.117177139681E+04   -0.25619E-02   -0.41557E-03  6845   0.710E-02    0.804E-01
RMM:   5    -0.117176829352E+04    0.31033E-02   -0.58181E-03  5896   0.758E-02    0.497E-01
RMM:   6    -0.117176681606E+04    0.14775E-02   -0.25752E-03  5676   0.478E-02    0.524E-01
RMM:   7    -0.117176541089E+04    0.14052E-02   -0.19245E-03  5610   0.433E-02    0.501E-01
RMM:   8    -0.117176254613E+04    0.28648E-02   -0.75241E-03  6102   0.940E-02    0.695E-01
RMM:   9    -0.117176428599E+04   -0.17399E-02   -0.36444E-03  5912   0.569E-02    0.894E-01
RMM:  10    -0.117176450354E+04   -0.21755E-03   -0.22180E-04  4219   0.201E-02    0.846E-01
RMM:  11    -0.117176573082E+04   -0.12273E-02   -0.25637E-04  4022   0.189E-02    0.887E-01
RMM:  12    -0.117176391994E+04    0.18109E-02   -0.30764E-03  5492   0.645E-02    0.101E+00
RMM:  13    -0.117176175716E+04    0.21628E-02   -0.41433E-03  5856   0.668E-02    0.549E-01
RMM:  14    -0.117176088815E+04    0.86901E-03   -0.27408E-03  5939   0.524E-02    0.298E-01
RMM:  15    -0.117176062264E+04    0.26551E-03   -0.19478E-03  5562   0.435E-02    0.639E-02
RMM:  16    -0.117176066858E+04   -0.45937E-04   -0.31012E-04  4285   0.217E-02
  16 F= -.11717607E+04 E0= -.11717522E+04  d E =-.731747E-02  mag=     4.0208
       N       E                     dE             d eps       ncg     rms          rms(c)
DAV:   1    -0.117175423227E+04    0.63904E-02   -0.78102E+00  6336   0.321E+00    0.580E-01
RMM:   2    -0.117177171151E+04   -0.17479E-01   -0.18956E-01  6150   0.531E-01    0.442E-01
RMM:   3    -0.117177169456E+04    0.16946E-04   -0.89010E-03  6111   0.164E-01    0.277E-01
RMM:   4    -0.117177149210E+04    0.20246E-03   -0.17582E-03  7785   0.440E-02    0.196E-01
RMM:   5    -0.117177151138E+04   -0.19277E-04   -0.10326E-03  5893   0.314E-02    0.191E-01
RMM:   6    -0.117177238872E+04   -0.87735E-03   -0.50667E-04  5244   0.264E-02    0.209E-01
RMM:   7    -0.117177202530E+04    0.36342E-03   -0.11064E-04  3684   0.139E-02    0.187E-01
RMM:   8    -0.117177125046E+04    0.77484E-03   -0.37033E-04  4241   0.216E-02    0.116E-01
RMM:   9    -0.117177111168E+04    0.13878E-03   -0.13061E-04  3789   0.133E-02    0.862E-02
RMM:  10    -0.117177109053E+04    0.21145E-04   -0.52284E-05  3557   0.947E-03
  17 F= -.11717711E+04 E0= -.11717626E+04  d E =-.104220E-01  mag=     4.0197
       N       E                     dE             d eps       ncg     rms          rms(c)
DAV:   1    -0.117176015091E+04    0.10961E-01   -0.81141E+00  6304   0.328E+00    0.594E-01
RMM:   2    -0.117177864531E+04   -0.18494E-01   -0.19565E-01  6150   0.539E-01    0.396E-01
RMM:   3    -0.117177883089E+04   -0.18558E-03   -0.89596E-03  6165   0.166E-01    0.271E-01
RMM:   4    -0.117177958155E+04   -0.75067E-03   -0.26462E-03  7422   0.558E-02    0.298E-01
RMM:   5    -0.117178081433E+04   -0.12328E-02   -0.72700E-04  5759   0.280E-02    0.398E-01
RMM:   6    -0.117177928290E+04    0.15314E-02   -0.23088E-03  5640   0.488E-02    0.359E-01
RMM:   7    -0.117177882753E+04    0.45537E-03   -0.18043E-04  4027   0.170E-02    0.290E-01
RMM:   8    -0.117177814041E+04    0.68711E-03   -0.53582E-04  4851   0.259E-02    0.205E-01
RMM:   9    -0.117177810703E+04    0.33387E-04   -0.10694E-04  3680   0.150E-02
  18 F= -.11717781E+04 E0= -.11717695E+04  d E =-.701649E-02  mag=     4.0198
       N       E                     dE             d eps       ncg     rms          rms(c)
DAV:   1    -0.117177242594E+04    0.57145E-02   -0.40410E+00  6384   0.233E+00    0.459E-01
RMM:   2    -0.117178222902E+04   -0.98031E-02   -0.99369E-02  6150   0.389E-01    0.439E-01
RMM:   3    -0.117178306854E+04   -0.83952E-03   -0.48360E-03  6130   0.122E-01    0.262E-01
RMM:   4    -0.117178511188E+04   -0.20433E-02   -0.14891E-03  6620   0.452E-02    0.446E-01
RMM:   5    -0.117178361865E+04    0.14932E-02   -0.72274E-04  5046   0.305E-02    0.349E-01
RMM:   6    -0.117178218200E+04    0.14366E-02   -0.58863E-04  4944   0.253E-02    0.261E-01
RMM:   7    -0.117178131129E+04    0.87071E-03   -0.10990E-03  5310   0.361E-02    0.204E-01
RMM:   8    -0.117178151169E+04   -0.20040E-03   -0.40330E-04  4479   0.264E-02    0.203E-01
RMM:   9    -0.117178141246E+04    0.99232E-04   -0.20569E-04  3918   0.195E-02
  19 F= -.11717814E+04 E0= -.11717731E+04  d E =-.330544E-02  mag=     4.0198
       N       E                     dE             d eps       ncg     rms          rms(c)
DAV:   1    -0.117177900619E+04    0.25055E-02   -0.20971E+00  6384   0.167E+00    0.392E-01
RMM:   2    -0.117178393899E+04   -0.49328E-02   -0.54380E-02  6162   0.293E-01    0.622E-01
RMM:   3    -0.117178422581E+04   -0.28682E-03   -0.29577E-03  6164   0.919E-02    0.261E-01
RMM:   4    -0.117178547018E+04   -0.12444E-02   -0.74887E-04  5938   0.328E-02    0.341E-01
RMM:   5    -0.117178505829E+04    0.41189E-03   -0.13168E-04  3725   0.154E-02    0.305E-01
RMM:   6    -0.117178365318E+04    0.14051E-02   -0.77875E-04  5037   0.296E-02    0.239E-01
RMM:   7    -0.117178331415E+04    0.33903E-03   -0.52491E-04  4736   0.244E-02    0.196E-01
RMM:   8    -0.117178332846E+04   -0.14310E-04   -0.50225E-04  4874   0.274E-02
  20 F= -.11717833E+04 E0= -.11717757E+04  d E =-.191600E-02  mag=     4.0219
       N       E                     dE             d eps       ncg     rms          rms(c)
DAV:   1    -0.117178058022E+04    0.27339E-02   -0.23078E+00  6336   0.175E+00    0.339E-01
RMM:   2    -0.117178608933E+04   -0.55091E-02   -0.54993E-02  6154   0.290E-01    0.239E-01
RMM:   3    -0.117178653490E+04   -0.44557E-03   -0.27329E-03  6099   0.928E-02    0.174E-01
RMM:   4    -0.117178728540E+04   -0.75049E-03   -0.91159E-04  6086   0.359E-02    0.200E-01
RMM:   5    -0.117178756439E+04   -0.27899E-03   -0.18227E-04  3933   0.165E-02    0.204E-01
RMM:   6    -0.117178795982E+04   -0.39543E-03   -0.11842E-04  3776   0.121E-02    0.204E-01
RMM:   7    -0.117178765721E+04    0.30261E-03   -0.83151E-05  3568   0.128E-02    0.187E-01
RMM:   8    -0.117178639990E+04    0.12573E-02   -0.14169E-03  5238   0.400E-02    0.233E-01
RMM:   9    -0.117178665151E+04   -0.25161E-03   -0.60369E-05  3573   0.118E-02    0.232E-01
RMM:  10    -0.117178644671E+04    0.20481E-03   -0.27424E-04  3959   0.176E-02    0.277E-01
RMM:  11    -0.117178692776E+04   -0.48106E-03   -0.15866E-04  3682   0.192E-02    0.304E-01
RMM:  12    -0.117178617607E+04    0.75169E-03   -0.41881E-04  4529   0.246E-02    0.319E-01
RMM:  13    -0.117178529299E+04    0.88308E-03   -0.21688E-03  5444   0.504E-02    0.471E-01
RMM:  14    -0.117178490413E+04    0.38886E-03   -0.83676E-04  4970   0.324E-02    0.251E-01
RMM:  15    -0.117178469342E+04    0.21071E-03   -0.36109E-04  4655   0.187E-02    0.146E-01
RMM:  16    -0.117178465906E+04    0.34355E-04   -0.17802E-04  4041   0.144E-02
  21 F= -.11717847E+04 E0= -.11717763E+04  d E =-.133060E-02  mag=     4.0211
