       N       E                     dE             d eps       ncg     rms          rms(c)
DAV:   1    -0.116192074468E+04   -0.11619E+04   -0.17833E-06  6672   0.173E-03    0.105E-03
RMM:   2    -0.116192074467E+04    0.98953E-08   -0.20966E-09   954   0.102E-03    0.627E-04
RMM:   3    -0.116192074466E+04    0.72760E-08    0.00000E+00   612   0.103E-03    0.388E-04
RMM:   4    -0.116192074466E+04    0.59081E-08   -0.15426E-10   428   0.105E-03    0.115E-04
RMM:   5    -0.116192074466E+04   -0.13097E-09    0.00000E+00   340   0.106E-03    0.943E-05
RMM:   6    -0.116192074466E+04   -0.15716E-08    0.00000E+00   303   0.107E-03    0.733E-05
RMM:   7    -0.116192074466E+04   -0.15862E-08   -0.89129E-09   292   0.108E-03    0.734E-05
RMM:   8    -0.116192074466E+04   -0.74215E-09   -0.75699E-10   258   0.108E-03
   1 F= -.11619207E+04 E0= -.11619207E+04  d E =-.116192E+04  mag=     5.9999
       N       E                     dE             d eps       ncg     rms          rms(c)
DAV:   1    -0.116192062393E+04    0.12073E-03   -0.18394E-01 12280   0.491E-01    0.847E-02
RMM:   2    -0.116192103012E+04   -0.40619E-03   -0.44458E-03 12218   0.819E-02    0.555E-02
RMM:   3    -0.116192102111E+04    0.90115E-05   -0.17269E-04  7312   0.266E-02    0.353E-02
RMM:   4    -0.116192101279E+04    0.83137E-05   -0.62349E-05  6763   0.973E-03    0.189E-02
RMM:   5    -0.116192101348E+04   -0.69079E-06   -0.14462E-05  6298   0.587E-03    0.727E-03
RMM:   6    -0.116192101426E+04   -0.77952E-06   -0.65468E-06  5355   0.374E-03    0.513E-03
RMM:   7    -0.116192101463E+04   -0.36231E-06   -0.32319E-06  4131   0.312E-03    0.339E-03
RMM:   8    -0.116192101485E+04   -0.22650E-06   -0.18974E-06  3170   0.240E-03
   2 F= -.11619210E+04 E0= -.11619210E+04  d E =-.270189E-03  mag=     5.9999
       N       E                     dE             d eps       ncg     rms          rms(c)
DAV:   1    -0.116192104929E+04   -0.34665E-04   -0.68732E-02 12048   0.297E-01    0.550E-02
RMM:   2    -0.116192118867E+04   -0.13938E-03   -0.16818E-03 12096   0.498E-02    0.376E-02
RMM:   3    -0.116192118071E+04    0.79555E-05   -0.66103E-05  6816   0.162E-02    0.235E-02
RMM:   4    -0.116192117566E+04    0.50500E-05   -0.33740E-05  6662   0.678E-03    0.106E-02
RMM:   5    -0.116192117579E+04   -0.13185E-06   -0.74969E-06  5934   0.408E-03    0.444E-03
RMM:   6    -0.116192117613E+04   -0.33659E-06   -0.33201E-06  4431   0.271E-03    0.321E-03
RMM:   7    -0.116192117629E+04   -0.15699E-06   -0.15515E-06  3328   0.247E-03    0.199E-03
RMM:   8    -0.116192117636E+04   -0.76077E-07   -0.72190E-07  2353   0.203E-03
   3 F= -.11619212E+04 E0= -.11619211E+04  d E =-.161510E-03  mag=     5.9999
