       N       E                     dE             d eps       ncg     rms          rms(c)
DAV:   1    -0.116284429287E+04   -0.11628E+04   -0.22712E-06  6704   0.350E-03    0.386E-03
RMM:   2    -0.116284429440E+04   -0.15263E-05   -0.19434E-06  2608   0.206E-03    0.428E-03
RMM:   3    -0.116284429491E+04   -0.51084E-06   -0.62886E-07  1433   0.139E-03    0.356E-03
RMM:   4    -0.116284429433E+04    0.58131E-06   -0.89008E-08  1188   0.135E-03    0.346E-03
RMM:   5    -0.116284429347E+04    0.86427E-06   -0.16945E-07  1269   0.143E-03    0.361E-03
RMM:   6    -0.116284429524E+04   -0.17721E-05   -0.32368E-07  1264   0.149E-03    0.323E-03
RMM:   7    -0.116284430163E+04   -0.63899E-05   -0.12062E-05  4218   0.423E-03    0.486E-03
RMM:   8    -0.116284430424E+04   -0.26107E-05   -0.39338E-06  2385   0.210E-03
   1 F= -.11628443E+04 E0= -.11628443E+04  d E =-.116284E+04  mag=     6.0000
       N       E                     dE             d eps       ncg     rms          rms(c)
DAV:   1    -0.116281594069E+04    0.28361E-01   -0.66627E+00 12768   0.248E+00    0.163E+00
RMM:   2    -0.116285595394E+04   -0.40013E-01   -0.17092E-01 12321   0.514E-01    0.970E-01
RMM:   3    -0.116286148364E+04   -0.55297E-02   -0.10090E-02 12305   0.172E-01    0.431E-01
RMM:   4    -0.116286144975E+04    0.33892E-04   -0.33518E-03 12535   0.724E-02    0.231E-01
RMM:   5    -0.116286171541E+04   -0.26566E-03   -0.84915E-04 10577   0.340E-02    0.121E-01
RMM:   6    -0.116286190810E+04   -0.19269E-03   -0.18196E-04  7916   0.179E-02    0.620E-02
RMM:   7    -0.116286211451E+04   -0.20641E-03   -0.13701E-04  7556   0.130E-02    0.575E-02
RMM:   8    -0.116286239468E+04   -0.28017E-03   -0.17379E-04  7545   0.143E-02    0.467E-02
RMM:   9    -0.116286264978E+04   -0.25510E-03   -0.17392E-04  7456   0.130E-02    0.440E-02
RMM:  10    -0.116286292795E+04   -0.27817E-03   -0.20400E-04  7437   0.135E-02    0.392E-02
RMM:  11    -0.116286358636E+04   -0.65841E-03   -0.12213E-03  8940   0.370E-02    0.360E-02
RMM:  12    -0.116286421880E+04   -0.63244E-03   -0.21577E-03  9546   0.487E-02    0.293E-02
RMM:  13    -0.116286447923E+04   -0.26043E-03   -0.60718E-04  8353   0.217E-02    0.259E-02
RMM:  14    -0.116286466981E+04   -0.19058E-03   -0.32555E-04  7617   0.168E-02    0.249E-02
RMM:  15    -0.116286478137E+04   -0.11156E-03   -0.16924E-04  6696   0.108E-02    0.242E-02
RMM:  16    -0.116286492455E+04   -0.14317E-03   -0.20051E-04  6943   0.119E-02    0.227E-02
RMM:  17    -0.116286521168E+04   -0.28713E-03   -0.86144E-04  8312   0.285E-02    0.201E-02
RMM:  18    -0.116286533782E+04   -0.12615E-03   -0.28817E-04  6961   0.138E-02    0.177E-02
RMM:  19    -0.116286548858E+04   -0.15076E-03   -0.38157E-04  7596   0.181E-02    0.166E-02
RMM:  20    -0.116286562704E+04   -0.13847E-03   -0.51034E-04  7475   0.203E-02    0.140E-02
RMM:  21    -0.116286576393E+04   -0.13689E-03   -0.91583E-04  8194   0.278E-02    0.133E-02
RMM:  22    -0.116286585779E+04   -0.93855E-04   -0.43838E-04  7367   0.167E-02
   2 F= -.11628659E+04 E0= -.11628658E+04  d E =-.215535E-01  mag=     5.9999
       N       E                     dE             d eps       ncg     rms          rms(c)
DAV:   1    -0.116286410530E+04    0.16586E-02   -0.46114E-01 12752   0.659E-01    0.425E-01
RMM:   2    -0.116286690157E+04   -0.27963E-02   -0.11847E-02 12155   0.134E-01    0.248E-01
RMM:   3    -0.116286729042E+04   -0.38885E-03   -0.75178E-04 10164   0.465E-02    0.114E-01
RMM:   4    -0.116286729980E+04   -0.93831E-05   -0.23309E-04  8064   0.193E-02    0.572E-02
RMM:   5    -0.116286732595E+04   -0.26149E-04   -0.64445E-05  7148   0.111E-02    0.271E-02
RMM:   6    -0.116286734084E+04   -0.14890E-04   -0.21083E-05  6845   0.644E-03    0.183E-02
RMM:   7    -0.116286735541E+04   -0.14576E-04   -0.10962E-05  6168   0.426E-03    0.152E-02
RMM:   8    -0.116286738309E+04   -0.27677E-04   -0.19868E-05  6220   0.526E-03
   3 F= -.11628674E+04 E0= -.11628674E+04  d E =-.230789E-01  mag=     5.9999
       N       E                     dE             d eps       ncg     rms          rms(c)
DAV:   1    -0.116282384902E+04    0.43506E-01   -0.66328E+00 12640   0.246E+00    0.174E+00
RMM:   2    -0.116286815346E+04   -0.44304E-01   -0.14559E-01 12308   0.470E-01    0.955E-01
RMM:   3    -0.116287520222E+04   -0.70488E-02   -0.98255E-03 12381   0.174E-01    0.388E-01
RMM:   4    -0.116287521206E+04   -0.98371E-05   -0.33877E-03 13093   0.635E-02    0.177E-01
RMM:   5    -0.116287534232E+04   -0.13026E-03   -0.60270E-04 10346   0.304E-02    0.999E-02
RMM:   6    -0.116287544984E+04   -0.10752E-03   -0.14923E-04  7809   0.155E-02    0.529E-02
RMM:   7    -0.116287558297E+04   -0.13313E-03   -0.10136E-04  7464   0.122E-02    0.456E-02
RMM:   8    -0.116287570893E+04   -0.12597E-03   -0.84548E-05  7285   0.108E-02    0.392E-02
RMM:   9    -0.116287585395E+04   -0.14501E-03   -0.10516E-04  7218   0.110E-02    0.331E-02
RMM:  10    -0.116287595389E+04   -0.99945E-04   -0.73388E-05  6920   0.796E-03
   4 F= -.11628760E+04 E0= -.11628759E+04  d E =-.857080E-02  mag=     5.9998
       N       E                     dE             d eps       ncg     rms          rms(c)
DAV:   1    -0.116287503542E+04    0.81852E-03   -0.21351E-01 13056   0.441E-01    0.317E-01
RMM:   2    -0.116287651963E+04   -0.14842E-02   -0.47891E-03 12144   0.856E-02    0.170E-01
RMM:   3    -0.116287676057E+04   -0.24094E-03   -0.28889E-04  8162   0.303E-02    0.733E-02
RMM:   4    -0.116287681238E+04   -0.51805E-04   -0.11115E-04  7242   0.134E-02    0.373E-02
RMM:   5    -0.116287686995E+04   -0.57576E-04   -0.64868E-05  6862   0.841E-03    0.228E-02
RMM:   6    -0.116287689771E+04   -0.27760E-04   -0.20464E-05  5957   0.534E-03    0.203E-02
RMM:   7    -0.116287693359E+04   -0.35881E-04   -0.19765E-05  5336   0.471E-03    0.192E-02
RMM:   8    -0.116287700143E+04   -0.67838E-04   -0.49075E-05  6076   0.701E-03
   5 F= -.11628770E+04 E0= -.11628770E+04  d E =-.961834E-02  mag=     5.9998
       N       E                     dE             d eps       ncg     rms          rms(c)
DAV:   1    -0.116287253050E+04    0.44031E-02   -0.21709E+00 12656   0.156E+00    0.645E-01
RMM:   2    -0.116288082866E+04   -0.82982E-02   -0.53816E-02 12436   0.291E-01    0.417E-01
RMM:   3    -0.116288156574E+04   -0.73708E-03   -0.33847E-03 12886   0.102E-01    0.211E-01
RMM:   4    -0.116288149243E+04    0.73314E-04   -0.99174E-04 11159   0.361E-02    0.992E-02
RMM:   5    -0.116288155348E+04   -0.61050E-04   -0.24649E-04  8325   0.219E-02    0.394E-02
RMM:   6    -0.116288159306E+04   -0.39579E-04   -0.63093E-05  7178   0.114E-02    0.298E-02
RMM:   7    -0.116288164165E+04   -0.48592E-04   -0.43546E-05  7041   0.867E-03    0.284E-02
RMM:   8    -0.116288170226E+04   -0.60617E-04   -0.42521E-05  6941   0.794E-03
   6 F= -.11628817E+04 E0= -.11628817E+04  d E =-.470083E-02  mag=     5.9998
       N       E                     dE             d eps       ncg     rms          rms(c)
DAV:   1    -0.116288166070E+04   -0.19049E-04   -0.80344E-02 13056   0.301E-01    0.125E-01
RMM:   2    -0.116288200868E+04   -0.34799E-03   -0.20432E-03 12116   0.562E-02    0.824E-02
RMM:   3    -0.116288205734E+04   -0.48659E-04   -0.11334E-04  7368   0.205E-02    0.465E-02
RMM:   4    -0.116288211198E+04   -0.54634E-04   -0.75305E-05  7038   0.101E-02    0.293E-02
RMM:   5    -0.116288216181E+04   -0.49834E-04   -0.42070E-05  6656   0.637E-03    0.219E-02
RMM:   6    -0.116288219373E+04   -0.31920E-04   -0.19229E-05  6084   0.481E-03    0.206E-02
RMM:   7    -0.116288223399E+04   -0.40257E-04   -0.21060E-05  5504   0.501E-03    0.198E-02
RMM:   8    -0.116288231964E+04   -0.85654E-04   -0.75118E-05  6435   0.888E-03
   7 F= -.11628823E+04 E0= -.11628823E+04  d E =-.531821E-02  mag=     5.9999
       N       E                     dE             d eps       ncg     rms          rms(c)
DAV:   1    -0.116288146297E+04    0.77102E-03   -0.15539E+00 12672   0.140E+00    0.361E-01
RMM:   2    -0.116288529612E+04   -0.38332E-02   -0.38619E-02 12506   0.251E-01    0.245E-01
RMM:   3    -0.116288539676E+04   -0.10064E-03   -0.23009E-03 12746   0.866E-02    0.151E-01
RMM:   4    -0.116288531382E+04    0.82941E-04   -0.67369E-04 10913   0.305E-02    0.759E-02
RMM:   5    -0.116288536861E+04   -0.54782E-04   -0.20204E-04  8022   0.204E-02    0.329E-02
RMM:   6    -0.116288540660E+04   -0.37994E-04   -0.55877E-05  7139   0.108E-02    0.263E-02
RMM:   7    -0.116288545046E+04   -0.43860E-04   -0.38968E-05  7009   0.835E-03    0.256E-02
RMM:   8    -0.116288552540E+04   -0.74940E-04   -0.60342E-05  6961   0.907E-03
   8 F= -.11628855E+04 E0= -.11628855E+04  d E =-.320576E-02  mag=     5.9998
       N       E                     dE             d eps       ncg     rms          rms(c)
DAV:   1    -0.116288561435E+04   -0.16389E-03   -0.28209E-02 13320   0.189E-01    0.530E-02
RMM:   2    -0.116288571887E+04   -0.10453E-03   -0.72776E-04 10988   0.343E-02    0.396E-02
RMM:   3    -0.116288574306E+04   -0.24188E-04   -0.45767E-05  6933   0.131E-02    0.288E-02
RMM:   4    -0.116288578919E+04   -0.46128E-04   -0.45020E-05  6771   0.772E-03    0.221E-02
RMM:   5    -0.116288583877E+04   -0.49578E-04   -0.37193E-05  6133   0.558E-03    0.197E-02
RMM:   6    -0.116288586464E+04   -0.25878E-04   -0.15566E-05  4937   0.384E-03    0.194E-02
RMM:   7    -0.116288589471E+04   -0.30066E-04   -0.14695E-05  4869   0.452E-03    0.192E-02
RMM:   8    -0.116288596543E+04   -0.70715E-04   -0.56368E-05  6112   0.784E-03
   9 F= -.11628860E+04 E0= -.11628859E+04  d E =-.364579E-02  mag=     5.9998
       N       E                     dE             d eps       ncg     rms          rms(c)
DAV:   1    -0.116288592353E+04   -0.28821E-04   -0.11284E-01 12416   0.380E-01    0.990E-02
RMM:   2    -0.116288624128E+04   -0.31775E-03   -0.28839E-03 12204   0.692E-02    0.668E-02
RMM:   3    -0.116288626202E+04   -0.20737E-04   -0.14531E-04  7382   0.248E-02    0.425E-02
RMM:   4    -0.116288628543E+04   -0.23413E-04   -0.68965E-05  7013   0.108E-02    0.253E-02
RMM:   5    -0.116288631810E+04   -0.32665E-04   -0.35423E-05  6769   0.650E-03    0.186E-02
RMM:   6    -0.116288633552E+04   -0.17422E-04   -0.13166E-05  6117   0.482E-03    0.174E-02
RMM:   7    -0.116288635228E+04   -0.16759E-04   -0.94473E-06  4960   0.375E-03    0.170E-02
RMM:   8    -0.116288637457E+04   -0.22297E-04   -0.10692E-05  4865   0.374E-03
  10 F= -.11628864E+04 E0= -.11628863E+04  d E =-.405493E-02  mag=     5.9998
       N       E                     dE             d eps       ncg     rms          rms(c)
DAV:   1    -0.116288479761E+04    0.15547E-02   -0.12651E+00 12608   0.126E+00    0.337E-01
RMM:   2    -0.116288817229E+04   -0.33747E-02   -0.31005E-02 12657   0.221E-01    0.208E-01
RMM:   3    -0.116288828532E+04   -0.11303E-03   -0.16926E-03 12452   0.746E-02    0.124E-01
RMM:   4    -0.116288825054E+04    0.34774E-04   -0.44016E-04  9622   0.260E-02    0.604E-02
RMM:   5    -0.116288830605E+04   -0.55509E-04   -0.14797E-04  7445   0.172E-02    0.283E-02
RMM:   6    -0.116288833710E+04   -0.31042E-04   -0.46705E-05  7076   0.100E-02    0.239E-02
RMM:   7    -0.116288838004E+04   -0.42943E-04   -0.37922E-05  6948   0.816E-03    0.227E-02
RMM:   8    -0.116288844822E+04   -0.68183E-04   -0.55472E-05  6911   0.869E-03
  11 F= -.11628884E+04 E0= -.11628884E+04  d E =-.207365E-02  mag=     5.9998
       N       E                     dE             d eps       ncg     rms          rms(c)
DAV:   1    -0.116288763035E+04    0.74969E-03   -0.43127E-01 12424   0.734E-01    0.197E-01
RMM:   2    -0.116288880532E+04   -0.11750E-02   -0.10550E-02 12613   0.129E-01    0.123E-01
RMM:   3    -0.116288886206E+04   -0.56742E-04   -0.56072E-04  9719   0.430E-02    0.755E-02
RMM:   4    -0.116288889074E+04   -0.28680E-04   -0.17652E-04  7476   0.165E-02    0.407E-02
RMM:   5    -0.116288895168E+04   -0.60943E-04   -0.85076E-05  7155   0.112E-02    0.249E-02
RMM:   6    -0.116288898367E+04   -0.31989E-04   -0.32673E-05  6906   0.775E-03    0.227E-02
RMM:   7    -0.116288902541E+04   -0.41739E-04   -0.29321E-05  6742   0.652E-03    0.216E-02
RMM:   8    -0.116288911417E+04   -0.88758E-04   -0.79416E-05  6849   0.955E-03
  12 F= -.11628891E+04 E0= -.11628891E+04  d E =-.273960E-02  mag=     5.9998
       N       E                     dE             d eps       ncg     rms          rms(c)
DAV:   1    -0.116288870496E+04    0.32046E-03   -0.75660E-01 12608   0.976E-01    0.273E-01
RMM:   2    -0.116289074061E+04   -0.20357E-02   -0.18965E-02 12720   0.174E-01    0.182E-01
RMM:   3    -0.116289081583E+04   -0.75222E-04   -0.10597E-03 11672   0.576E-02    0.107E-01
RMM:   4    -0.116289080642E+04    0.94096E-05   -0.29969E-04  8363   0.220E-02    0.550E-02
RMM:   5    -0.116289086390E+04   -0.57478E-04   -0.12711E-04  7323   0.146E-02    0.285E-02
RMM:   6    -0.116289089361E+04   -0.29704E-04   -0.40334E-05  7021   0.941E-03    0.244E-02
RMM:   7    -0.116289093203E+04   -0.38421E-04   -0.31351E-05  6870   0.700E-03    0.227E-02
RMM:   8    -0.116289099984E+04   -0.67809E-04   -0.49812E-05  6844   0.808E-03
  13 F= -.11628910E+04 E0= -.11628910E+04  d E =-.188567E-02  mag=     5.9997
       N       E                     dE             d eps       ncg     rms          rms(c)
DAV:   1    -0.116289111951E+04   -0.18748E-03   -0.22348E-02 13344   0.169E-01    0.509E-02
RMM:   2    -0.116289120813E+04   -0.88618E-04   -0.57102E-04 10090   0.307E-02    0.376E-02
RMM:   3    -0.116289123028E+04   -0.22151E-04   -0.40477E-05  6892   0.123E-02    0.260E-02
RMM:   4    -0.116289126834E+04   -0.38057E-04   -0.34780E-05  6663   0.699E-03    0.209E-02
RMM:   5    -0.116289131180E+04   -0.43464E-04   -0.31328E-05  5950   0.536E-03    0.193E-02
RMM:   6    -0.116289132850E+04   -0.16696E-04   -0.10846E-05  4860   0.354E-03    0.187E-02
RMM:   7    -0.116289134184E+04   -0.13342E-04   -0.63928E-06  4104   0.356E-03    0.185E-02
RMM:   8    -0.116289138107E+04   -0.39227E-04   -0.19974E-05  5298   0.505E-03
  14 F= -.11628914E+04 E0= -.11628913E+04  d E =-.226689E-02  mag=     5.9997
       N       E                     dE             d eps       ncg     rms          rms(c)
DAV:   1    -0.116289131970E+04    0.22136E-04   -0.88922E-02 12272   0.335E-01    0.946E-02
RMM:   2    -0.116289158264E+04   -0.26294E-03   -0.22613E-03 12394   0.604E-02    0.635E-02
RMM:   3    -0.116289160370E+04   -0.21052E-04   -0.10692E-04  7211   0.211E-02    0.401E-02
RMM:   4    -0.116289163181E+04   -0.28118E-04   -0.56111E-05  6974   0.949E-03    0.256E-02
RMM:   5    -0.116289166236E+04   -0.30541E-04   -0.28743E-05  6560   0.601E-03    0.230E-02
RMM:   6    -0.116289168073E+04   -0.18373E-04   -0.12765E-05  6055   0.453E-03    0.180E-02
RMM:   7    -0.116289169972E+04   -0.18990E-04   -0.95718E-06  4871   0.384E-03    0.180E-02
RMM:   8    -0.116289172763E+04   -0.27916E-04   -0.14270E-05  5286   0.420E-03
  15 F= -.11628917E+04 E0= -.11628917E+04  d E =-.261346E-02  mag=     5.9997
       N       E                     dE             d eps       ncg     rms          rms(c)
DAV:   1    -0.116289075528E+04    0.94444E-03   -0.81329E-01 12480   0.102E+00    0.255E-01
RMM:   2    -0.116289294360E+04   -0.21883E-02   -0.20650E-02 12635   0.184E-01    0.162E-01
RMM:   3    -0.116289303095E+04   -0.87347E-04   -0.11609E-03 11713   0.612E-02    0.992E-02
RMM:   4    -0.116289302005E+04    0.10896E-04   -0.25378E-04  8079   0.210E-02    0.525E-02
RMM:   5    -0.116289306825E+04   -0.48196E-04   -0.11416E-04  7244   0.141E-02    0.242E-02
RMM:   6    -0.116289309390E+04   -0.25649E-04   -0.36039E-05  6961   0.898E-03    0.215E-02
RMM:   7    -0.116289312079E+04   -0.26892E-04   -0.24884E-05  6792   0.617E-03    0.202E-02
RMM:   8    -0.116289317354E+04   -0.52748E-04   -0.38424E-05  6779   0.753E-03
  16 F= -.11628932E+04 E0= -.11628931E+04  d E =-.144590E-02  mag=     5.9996
       N       E                     dE             d eps       ncg     rms          rms(c)
DAV:   1    -0.116289305091E+04    0.69879E-04   -0.10610E-01 12432   0.367E-01    0.935E-02
RMM:   2    -0.116289336353E+04   -0.31262E-03   -0.27496E-03 12502   0.664E-02    0.614E-02
RMM:   3    -0.116289338486E+04   -0.21324E-04   -0.12107E-04  7298   0.216E-02    0.400E-02
RMM:   4    -0.116289341536E+04   -0.30508E-04   -0.58852E-05  7000   0.954E-03    0.251E-02
RMM:   5    -0.116289345300E+04   -0.37635E-04   -0.34341E-05  6715   0.638E-03    0.195E-02
RMM:   6    -0.116289347448E+04   -0.21483E-04   -0.15338E-05  6154   0.462E-03    0.184E-02
RMM:   7    -0.116289349639E+04   -0.21913E-04   -0.11858E-05  5231   0.418E-03    0.180E-02
RMM:   8    -0.116289353869E+04   -0.42293E-04   -0.27092E-05  5892   0.559E-03
  17 F= -.11628935E+04 E0= -.11628935E+04  d E =-.181105E-02  mag=     5.9996
       N       E                     dE             d eps       ncg     rms          rms(c)
DAV:   1    -0.116289350693E+04   -0.10534E-04   -0.25996E-01 12528   0.577E-01    0.170E-01
RMM:   2    -0.116289424347E+04   -0.73654E-03   -0.65902E-03 12418   0.104E-01    0.114E-01
RMM:   3    -0.116289428069E+04   -0.37223E-04   -0.33716E-04  8918   0.362E-02    0.668E-02
RMM:   4    -0.116289428860E+04   -0.79085E-05   -0.11735E-04  7268   0.141E-02    0.360E-02
RMM:   5    -0.116289432022E+04   -0.31624E-04   -0.51535E-05  7019   0.889E-03    0.201E-02
RMM:   6    -0.116289433870E+04   -0.18479E-04   -0.18980E-05  6733   0.625E-03    0.181E-02
RMM:   7    -0.116289435801E+04   -0.19301E-04   -0.14017E-05  5939   0.453E-03    0.173E-02
RMM:   8    -0.116289439080E+04   -0.32798E-04   -0.20734E-05  6072   0.507E-03
  18 F= -.11628944E+04 E0= -.11628943E+04  d E =-.852116E-03  mag=     5.9997
       N       E                     dE             d eps       ncg     rms          rms(c)
DAV:   1    -0.116289438115E+04   -0.23147E-04   -0.40007E-02 12560   0.227E-01    0.683E-02
RMM:   2    -0.116289450973E+04   -0.12858E-03   -0.10256E-03 11861   0.409E-02    0.470E-02
RMM:   3    -0.116289452487E+04   -0.15137E-04   -0.50744E-05  6981   0.147E-02    0.299E-02
RMM:   4    -0.116289454684E+04   -0.21971E-04   -0.32004E-05  6773   0.716E-03    0.202E-02
RMM:   5    -0.116289457113E+04   -0.24284E-04   -0.19938E-05  5888   0.450E-03    0.170E-02
RMM:   6    -0.116289458471E+04   -0.13583E-04   -0.80056E-06  4951   0.345E-03    0.159E-02
RMM:   7    -0.116289459497E+04   -0.10259E-04   -0.47271E-06  4098   0.299E-03    0.157E-02
RMM:   8    -0.116289460536E+04   -0.10396E-04   -0.47060E-06  3899   0.279E-03
  19 F= -.11628946E+04 E0= -.11628946E+04  d E =-.106668E-02  mag=     5.9997
       N       E                     dE             d eps       ncg     rms          rms(c)
DAV:   1    -0.116289438656E+04    0.20841E-03   -0.26161E-01 12448   0.579E-01    0.159E-01
RMM:   2    -0.116289513069E+04   -0.74413E-03   -0.63456E-03 12630   0.100E-01    0.970E-02
RMM:   3    -0.116289516982E+04   -0.39132E-04   -0.30437E-04  8529   0.344E-02    0.554E-02
RMM:   4    -0.116289517708E+04   -0.72604E-05   -0.84101E-05  7157   0.126E-02    0.319E-02
RMM:   5    -0.116289519930E+04   -0.22214E-04   -0.38242E-05  6937   0.829E-03    0.246E-02
RMM:   6    -0.116289521409E+04   -0.14798E-04   -0.17051E-05  6677   0.596E-03    0.165E-02
RMM:   7    -0.116289522724E+04   -0.13143E-04   -0.10553E-05  5834   0.437E-03    0.163E-02
RMM:   8    -0.116289524574E+04   -0.18506E-04   -0.11118E-05  5447   0.416E-03
  20 F= -.11628952E+04 E0= -.11628952E+04  d E =-.640380E-03  mag=     5.9997
