       N       E                     dE             d eps       ncg     rms          rms(c)
DAV:   1    -0.116159654522E+04   -0.11616E+04   -0.18819E-05  4000   0.114E-02    0.111E-02
RMM:   2    -0.116159656001E+04   -0.14783E-04   -0.16408E-05  3172   0.651E-03    0.142E-02
RMM:   3    -0.116159656426E+04   -0.42565E-05   -0.73324E-06  2460   0.315E-03    0.104E-02
RMM:   4    -0.116159656553E+04   -0.12675E-05   -0.31132E-06  2187   0.337E-03    0.108E-02
RMM:   5    -0.116159656276E+04    0.27704E-05   -0.13114E-06  1529   0.224E-03    0.113E-02
RMM:   6    -0.116159656398E+04   -0.12192E-05   -0.69464E-07  1307   0.225E-03    0.112E-02
RMM:   7    -0.116159656377E+04    0.20505E-06   -0.17493E-07   899   0.188E-03    0.112E-02
RMM:   8    -0.116159657746E+04   -0.13683E-04   -0.48092E-06  1891   0.315E-03
   1 F= -.11615966E+04 E0= -.11615966E+04  d E =-.116160E+04  mag=     8.0000
       N       E                     dE             d eps       ncg     rms          rms(c)
DAV:   1    -0.116159814738E+04   -0.15836E-02   -0.18643E+00  6384   0.156E+00    0.530E-01
RMM:   2    -0.116160362978E+04   -0.54824E-02   -0.49760E-02  6201   0.290E-01    0.376E-01
RMM:   3    -0.116160390084E+04   -0.27106E-03   -0.28950E-03  6446   0.103E-01    0.219E-01
RMM:   4    -0.116160374702E+04    0.15382E-03   -0.10604E-03  6057   0.372E-02    0.970E-02
RMM:   5    -0.116160374467E+04    0.23428E-05   -0.22506E-04  4236   0.210E-02    0.384E-02
RMM:   6    -0.116160375781E+04   -0.13140E-04   -0.55968E-05  3603   0.122E-02    0.226E-02
RMM:   7    -0.116160377651E+04   -0.18696E-04   -0.38488E-05  3525   0.868E-03    0.220E-02
RMM:   8    -0.116160379670E+04   -0.20190E-04   -0.26247E-05  3446   0.718E-03
   2 F= -.11616038E+04 E0= -.11616038E+04  d E =-.721924E-02  mag=     8.0000
       N       E                     dE             d eps       ncg     rms          rms(c)
DAV:   1    -0.116160591101E+04   -0.21345E-02   -0.53926E-01  6408   0.847E-01    0.274E-01
RMM:   2    -0.116160730970E+04   -0.13987E-02   -0.15236E-02  6202   0.159E-01    0.216E-01
RMM:   3    -0.116160733511E+04   -0.25404E-04   -0.88370E-04  5756   0.567E-02    0.133E-01
RMM:   4    -0.116160728979E+04    0.45319E-04   -0.37329E-04  4801   0.226E-02    0.674E-02
RMM:   5    -0.116160729859E+04   -0.88041E-05   -0.10145E-04  3784   0.155E-02    0.282E-02
RMM:   6    -0.116160731147E+04   -0.12881E-04   -0.32639E-05  3521   0.807E-03    0.195E-02
RMM:   7    -0.116160732762E+04   -0.16147E-04   -0.19593E-05  3379   0.647E-03    0.161E-02
RMM:   8    -0.116160735350E+04   -0.25884E-04   -0.23671E-05  3326   0.622E-03
   3 F= -.11616074E+04 E0= -.11616074E+04  d E =-.355680E-02  mag=     8.0000
       N       E                     dE             d eps       ncg     rms          rms(c)
DAV:   1    -0.116160403712E+04    0.32905E-02   -0.34804E+00  6352   0.214E+00    0.614E-01
RMM:   2    -0.116161381300E+04   -0.97759E-02   -0.86621E-02  6463   0.375E-01    0.380E-01
RMM:   3    -0.116161425511E+04   -0.44210E-03   -0.46596E-03  6711   0.126E-01    0.221E-01
RMM:   4    -0.116161413927E+04    0.11583E-03   -0.12939E-03  6818   0.419E-02    0.100E-01
RMM:   5    -0.116161419484E+04   -0.55569E-04   -0.37024E-04  4616   0.230E-02    0.342E-02
RMM:   6    -0.116161422056E+04   -0.25721E-04   -0.71504E-05  3602   0.126E-02    0.238E-02
RMM:   7    -0.116161427111E+04   -0.50544E-04   -0.63049E-05  3573   0.110E-02    0.204E-02
RMM:   8    -0.116161431389E+04   -0.42784E-04   -0.49628E-05  3496   0.860E-03
   4 F= -.11616143E+04 E0= -.11616143E+04  d E =-.696039E-02  mag=     8.0000
       N       E                     dE             d eps       ncg     rms          rms(c)
DAV:   1    -0.116161310147E+04    0.11696E-02   -0.18308E+00  6368   0.155E+00    0.400E-01
RMM:   2    -0.116161794376E+04   -0.48423E-02   -0.45353E-02  6478   0.269E-01    0.248E-01
RMM:   3    -0.116161809760E+04   -0.15384E-03   -0.23976E-03  6456   0.897E-02    0.148E-01
RMM:   4    -0.116161805612E+04    0.41475E-04   -0.63768E-04  5517   0.308E-02    0.698E-02
RMM:   5    -0.116161811014E+04   -0.54017E-04   -0.19798E-04  3784   0.198E-02    0.287E-02
RMM:   6    -0.116161813928E+04   -0.29135E-04   -0.62276E-05  3570   0.118E-02    0.222E-02
RMM:   7    -0.116161817461E+04   -0.35332E-04   -0.47396E-05  3487   0.974E-03    0.206E-02
RMM:   8    -0.116161823328E+04   -0.58670E-04   -0.59101E-05  3467   0.979E-03
   5 F= -.11616182E+04 E0= -.11616182E+04  d E =-.391939E-02  mag=     8.0000
       N       E                     dE             d eps       ncg     rms          rms(c)
DAV:   1    -0.116161827839E+04   -0.10378E-03   -0.85544E-01  6416   0.106E+00    0.239E-01
RMM:   2    -0.116162039599E+04   -0.21176E-02   -0.21014E-02  6541   0.182E-01    0.145E-01
RMM:   3    -0.116162043306E+04   -0.37069E-04   -0.10498E-03  5614   0.586E-02    0.890E-02
RMM:   4    -0.116162042495E+04    0.81064E-05   -0.23974E-04  3913   0.210E-02    0.463E-02
RMM:   5    -0.116162046872E+04   -0.43771E-04   -0.11669E-04  3601   0.143E-02    0.193E-02
RMM:   6    -0.116162049119E+04   -0.22464E-04   -0.40037E-05  3504   0.955E-03    0.173E-02
RMM:   7    -0.116162051588E+04   -0.24692E-04   -0.29617E-05  3406   0.718E-03    0.160E-02
RMM:   8    -0.116162056488E+04   -0.48997E-04   -0.47435E-05  3387   0.853E-03
   6 F= -.11616206E+04 E0= -.11616206E+04  d E =-.233160E-02  mag=     8.0000
       N       E                     dE             d eps       ncg     rms          rms(c)
DAV:   1    -0.116162058613E+04   -0.70253E-04   -0.76614E-01  6384   0.101E+00    0.218E-01
RMM:   2    -0.116162246503E+04   -0.18789E-02   -0.18784E-02  6495   0.172E-01    0.130E-01
RMM:   3    -0.116162249269E+04   -0.27661E-04   -0.92910E-04  5460   0.563E-02    0.799E-02
RMM:   4    -0.116162248050E+04    0.12194E-04   -0.19975E-04  3771   0.195E-02    0.420E-02
RMM:   5    -0.116162251076E+04   -0.30264E-04   -0.95817E-05  3565   0.131E-02    0.177E-02
RMM:   6    -0.116162252619E+04   -0.15427E-04   -0.33009E-05  3481   0.893E-03    0.151E-02
RMM:   7    -0.116162254190E+04   -0.15712E-04   -0.22913E-05  3353   0.632E-03    0.139E-02
RMM:   8    -0.116162257055E+04   -0.28648E-04   -0.26515E-05  3279   0.690E-03
   7 F= -.11616226E+04 E0= -.11616226E+04  d E =-.200567E-02  mag=     8.0000
       N       E                     dE             d eps       ncg     rms          rms(c)
DAV:   1    -0.116162237439E+04    0.16751E-03   -0.74550E-01  6384   0.991E-01    0.219E-01
RMM:   2    -0.116162422129E+04   -0.18469E-02   -0.18058E-02  6511   0.168E-01    0.127E-01
RMM:   3    -0.116162425042E+04   -0.29126E-04   -0.87344E-04  5371   0.544E-02    0.760E-02
RMM:   4    -0.116162423249E+04    0.17922E-04   -0.18199E-04  3740   0.189E-02    0.394E-02
RMM:   5    -0.116162425557E+04   -0.23071E-04   -0.90464E-05  3556   0.128E-02    0.152E-02
RMM:   6    -0.116162426907E+04   -0.13506E-04   -0.30831E-05  3464   0.865E-03    0.129E-02
RMM:   7    -0.116162428271E+04   -0.13644E-04   -0.21592E-05  3333   0.609E-03    0.118E-02
RMM:   8    -0.116162430594E+04   -0.23223E-04   -0.23933E-05  3241   0.656E-03
   8 F= -.11616243E+04 E0= -.11616243E+04  d E =-.173539E-02  mag=     8.0000
       N       E                     dE             d eps       ncg     rms          rms(c)
DAV:   1    -0.116162429830E+04   -0.15589E-04   -0.52603E-01  6424   0.831E-01    0.182E-01
RMM:   2    -0.116162560651E+04   -0.13082E-02   -0.12665E-02  6513   0.140E-01    0.104E-01
RMM:   3    -0.116162562585E+04   -0.19343E-04   -0.59004E-04  4829   0.450E-02    0.615E-02
RMM:   4    -0.116162561409E+04    0.11768E-04   -0.12616E-04  3621   0.159E-02    0.325E-02
RMM:   5    -0.116162562962E+04   -0.15532E-04   -0.66162E-05  3531   0.109E-02    0.130E-02
RMM:   6    -0.116162563886E+04   -0.92377E-05   -0.23184E-05  3425   0.741E-03    0.108E-02
RMM:   7    -0.116162564793E+04   -0.90735E-05   -0.15388E-05  3210   0.530E-03    0.992E-03
RMM:   8    -0.116162566257E+04   -0.14639E-04   -0.16215E-05  3073   0.537E-03
   9 F= -.11616257E+04 E0= -.11616257E+04  d E =-.135663E-02  mag=     8.0000
       N       E                     dE             d eps       ncg     rms          rms(c)
DAV:   1    -0.116162531365E+04    0.33428E-03   -0.66727E-01  6384   0.931E-01    0.198E-01
RMM:   2    -0.116162695813E+04   -0.16445E-02   -0.15979E-02  6509   0.157E-01    0.113E-01
RMM:   3    -0.116162697814E+04   -0.20006E-04   -0.74430E-04  5143   0.501E-02    0.673E-02
RMM:   4    -0.116162695674E+04    0.21392E-04   -0.14814E-04  3677   0.172E-02    0.350E-02
RMM:   5    -0.116162696921E+04   -0.12466E-04   -0.73436E-05  3537   0.117E-02    0.125E-02
RMM:   6    -0.116162697689E+04   -0.76812E-05   -0.23849E-05  3438   0.784E-03    0.104E-02
RMM:   7    -0.116162698405E+04   -0.71587E-05   -0.16384E-05  3248   0.528E-03    0.935E-03
RMM:   8    -0.116162699468E+04   -0.10628E-04   -0.14058E-05  3071   0.520E-03
  10 F= -.11616270E+04 E0= -.11616270E+04  d E =-.133211E-02  mag=     8.0000
       N       E                     dE             d eps       ncg     rms          rms(c)
DAV:   1    -0.116162725464E+04   -0.27059E-03   -0.11159E-01  6368   0.377E-01    0.816E-02
RMM:   2    -0.116162753535E+04   -0.28071E-03   -0.26816E-03  6355   0.640E-02    0.474E-02
RMM:   3    -0.116162753842E+04   -0.30626E-05   -0.10988E-04  3609   0.208E-02    0.283E-02
RMM:   4    -0.116162754039E+04   -0.19725E-05   -0.37150E-05  3463   0.806E-03    0.158E-02
RMM:   5    -0.116162754723E+04   -0.68426E-05   -0.16262E-05  3200   0.543E-03    0.110E-02
RMM:   6    -0.116162755097E+04   -0.37381E-05   -0.68375E-06  2710   0.392E-03    0.725E-03
RMM:   7    -0.116162755479E+04   -0.38237E-05   -0.43040E-06  2302   0.328E-03    0.671E-03
RMM:   8    -0.116162756132E+04   -0.65240E-05   -0.67959E-06  2344   0.328E-03
  11 F= -.11616276E+04 E0= -.11616276E+04  d E =-.566641E-03  mag=     8.0000
       N       E                     dE             d eps       ncg     rms          rms(c)
DAV:   1    -0.116162759773E+04   -0.42935E-04   -0.33068E-01  6384   0.649E-01    0.142E-01
RMM:   2    -0.116162842531E+04   -0.82758E-03   -0.78416E-03  6549   0.110E-01    0.806E-02
RMM:   3    -0.116162843673E+04   -0.11416E-04   -0.34374E-04  4205   0.343E-02    0.469E-02
RMM:   4    -0.116162842709E+04    0.96396E-05   -0.75692E-05  3537   0.125E-02    0.248E-02
RMM:   5    -0.116162843220E+04   -0.51127E-05   -0.38888E-05  3455   0.865E-03    0.103E-02
RMM:   6    -0.116162843593E+04   -0.37302E-05   -0.13180E-05  3229   0.574E-03    0.714E-03
RMM:   7    -0.116162843919E+04   -0.32613E-05   -0.78315E-06  2758   0.410E-03    0.624E-03
RMM:   8    -0.116162844432E+04   -0.51326E-05   -0.75911E-06  2637   0.376E-03
  12 F= -.11616284E+04 E0= -.11616284E+04  d E =-.883004E-03  mag=     8.0000
       N       E                     dE             d eps       ncg     rms          rms(c)
DAV:   1    -0.116162840242E+04    0.36765E-04   -0.34883E-01  6256   0.663E-01    0.146E-01
RMM:   2    -0.116162928034E+04   -0.87791E-03   -0.82470E-03  6512   0.113E-01    0.824E-02
RMM:   3    -0.116162929217E+04   -0.11828E-04   -0.35872E-04  4276   0.353E-02    0.473E-02
RMM:   4    -0.116162928070E+04    0.11470E-04   -0.78366E-05  3542   0.127E-02    0.248E-02
RMM:   5    -0.116162928518E+04   -0.44857E-05   -0.40394E-05  3467   0.872E-03    0.980E-03
RMM:   6    -0.116162928878E+04   -0.36006E-05   -0.13807E-05  3272   0.584E-03    0.689E-03
RMM:   7    -0.116162929168E+04   -0.28987E-05   -0.81164E-06  2739   0.409E-03    0.593E-03
RMM:   8    -0.116162929583E+04   -0.41446E-05   -0.67649E-06  2580   0.374E-03
  13 F= -.11616293E+04 E0= -.11616293E+04  d E =-.851504E-03  mag=     8.0000
       N       E                     dE             d eps       ncg     rms          rms(c)
DAV:   1    -0.116162936875E+04   -0.77070E-04   -0.24109E-01  6176   0.550E-01    0.119E-01
RMM:   2    -0.116162996750E+04   -0.59875E-03   -0.56741E-03  6447   0.930E-02    0.689E-02
RMM:   3    -0.116162997463E+04   -0.71308E-05   -0.24602E-04  3994   0.299E-02    0.404E-02
RMM:   4    -0.116162996796E+04    0.66695E-05   -0.60169E-05  3512   0.108E-02    0.217E-02
RMM:   5    -0.116162997159E+04   -0.36303E-05   -0.27930E-05  3384   0.733E-03    0.109E-02
RMM:   6    -0.116162997428E+04   -0.26883E-05   -0.10479E-05  3057   0.504E-03    0.634E-03
RMM:   7    -0.116162997647E+04   -0.21871E-05   -0.62718E-06  2558   0.361E-03    0.544E-03
RMM:   8    -0.116162997931E+04   -0.28405E-05   -0.44931E-06  2356   0.331E-03
  14 F= -.11616300E+04 E0= -.11616300E+04  d E =-.683481E-03  mag=     8.0000
       N       E                     dE             d eps       ncg     rms          rms(c)
DAV:   1    -0.116163016192E+04   -0.18545E-03   -0.15707E-01  6112   0.442E-01    0.945E-02
RMM:   2    -0.116163054992E+04   -0.38800E-03   -0.36978E-03  6450   0.747E-02    0.544E-02
RMM:   3    -0.116163055093E+04   -0.10112E-05   -0.14554E-04  3728   0.231E-02    0.316E-02
RMM:   4    -0.116163054591E+04    0.50211E-05   -0.39847E-05  3454   0.887E-03    0.164E-02
RMM:   5    -0.116163054769E+04   -0.17798E-05   -0.18074E-05  3221   0.579E-03    0.664E-03
RMM:   6    -0.116163054929E+04   -0.15941E-05   -0.63334E-06  2669   0.407E-03    0.444E-03
RMM:   7    -0.116163055047E+04   -0.11801E-05   -0.38067E-06  2204   0.293E-03    0.395E-03
RMM:   8    -0.116163055207E+04   -0.16060E-05   -0.25447E-06  1976   0.278E-03
  15 F= -.11616306E+04 E0= -.11616306E+04  d E =-.572765E-03  mag=     8.0000
       N       E                     dE             d eps       ncg     rms          rms(c)
DAV:   1    -0.116163047891E+04    0.71554E-04   -0.33443E-01  6168   0.647E-01    0.138E-01
RMM:   2    -0.116163130806E+04   -0.82914E-03   -0.78417E-03  6531   0.109E-01    0.772E-02
RMM:   3    -0.116163131526E+04   -0.71991E-05   -0.32754E-04  4212   0.336E-02    0.442E-02
RMM:   4    -0.116163130245E+04    0.12808E-04   -0.70269E-05  3527   0.122E-02    0.234E-02
RMM:   5    -0.116163130368E+04   -0.12356E-05   -0.36035E-05  3439   0.835E-03    0.886E-03
RMM:   6    -0.116163130590E+04   -0.22136E-05   -0.12221E-05  3178   0.556E-03    0.564E-03
RMM:   7    -0.116163130735E+04   -0.14557E-05   -0.70269E-06  2645   0.372E-03    0.474E-03
RMM:   8    -0.116163130895E+04   -0.15967E-05   -0.43147E-06  2408   0.340E-03
  16 F= -.11616313E+04 E0= -.11616313E+04  d E =-.756876E-03  mag=     8.0000
       N       E                     dE             d eps       ncg     rms          rms(c)
DAV:   1    -0.116163115436E+04    0.15299E-03   -0.35713E-01  6144   0.668E-01    0.141E-01
RMM:   2    -0.116163204000E+04   -0.88564E-03   -0.83733E-03  6512   0.113E-01    0.788E-02
RMM:   3    -0.116163204809E+04   -0.80904E-05   -0.35568E-04  4266   0.350E-02    0.452E-02
RMM:   4    -0.116163203470E+04    0.13393E-04   -0.75585E-05  3529   0.124E-02    0.239E-02
RMM:   5    -0.116163203580E+04   -0.10988E-05   -0.37599E-05  3452   0.853E-03    0.946E-03
RMM:   6    -0.116163203805E+04   -0.22507E-05   -0.13073E-05  3211   0.570E-03    0.561E-03
RMM:   7    -0.116163203950E+04   -0.14532E-05   -0.76556E-06  2699   0.385E-03    0.467E-03
RMM:   8    -0.116163204097E+04   -0.14651E-05   -0.45993E-06  2430   0.350E-03
  17 F= -.11616320E+04 E0= -.11616320E+04  d E =-.732017E-03  mag=     8.0000
       N       E                     dE             d eps       ncg     rms          rms(c)
DAV:   1    -0.116163220402E+04   -0.16452E-03   -0.70675E-02  6224   0.296E-01    0.604E-02
RMM:   2    -0.116163237433E+04   -0.17032E-03   -0.16481E-03  6017   0.499E-02    0.350E-02
RMM:   3    -0.116163237584E+04   -0.15077E-05   -0.71319E-05  3497   0.176E-02    0.209E-02
RMM:   4    -0.116163237493E+04    0.91187E-06   -0.24151E-05  3320   0.636E-03    0.126E-02
RMM:   5    -0.116163237580E+04   -0.87623E-06   -0.80372E-06  2884   0.414E-03    0.872E-03
RMM:   6    -0.116163237674E+04   -0.93631E-06   -0.39797E-06  2306   0.310E-03    0.356E-03
RMM:   7    -0.116163237735E+04   -0.61298E-06   -0.20327E-06  1785   0.251E-03    0.324E-03
RMM:   8    -0.116163237797E+04   -0.61991E-06   -0.13068E-06  1507   0.228E-03
  18 F= -.11616324E+04 E0= -.11616324E+04  d E =-.337007E-03  mag=     8.0000
       N       E                     dE             d eps       ncg     rms          rms(c)
DAV:   1    -0.116163252127E+04   -0.14392E-03   -0.36023E-02  6096   0.211E-01    0.433E-02
RMM:   2    -0.116163260676E+04   -0.85493E-04   -0.82374E-04  5300   0.361E-02    0.243E-02
RMM:   3    -0.116163260955E+04   -0.27863E-05   -0.42626E-05  3374   0.137E-02    0.145E-02
RMM:   4    -0.116163260973E+04   -0.17871E-06   -0.14220E-05  3101   0.518E-03    0.946E-03
RMM:   5    -0.116163261017E+04   -0.43593E-06   -0.44636E-06  2431   0.339E-03    0.725E-03
RMM:   6    -0.116163261076E+04   -0.59447E-06   -0.24431E-06  1912   0.262E-03    0.262E-03
RMM:   7    -0.116163261114E+04   -0.37899E-06   -0.11565E-06  1416   0.220E-03    0.215E-03
RMM:   8    -0.116163261153E+04   -0.38931E-06   -0.70986E-07  1156   0.209E-03
  19 F= -.11616326E+04 E0= -.11616326E+04  d E =-.233555E-03  mag=     8.0000
       N       E                     dE             d eps       ncg     rms          rms(c)
DAV:   1    -0.116163246080E+04    0.15034E-03   -0.28760E-01  6144   0.599E-01    0.125E-01
RMM:   2    -0.116163316705E+04   -0.70625E-03   -0.67427E-03  6536   0.101E-01    0.697E-02
RMM:   3    -0.116163317144E+04   -0.43942E-05   -0.27540E-04  4058   0.308E-02    0.404E-02
RMM:   4    -0.116163316062E+04    0.10819E-04   -0.59385E-05  3501   0.113E-02    0.214E-02
RMM:   5    -0.116163316106E+04   -0.43189E-06   -0.30317E-05  3390   0.763E-03    0.789E-03
RMM:   6    -0.116163316265E+04   -0.15899E-05   -0.10031E-05  3011   0.513E-03    0.459E-03
RMM:   7    -0.116163316359E+04   -0.94662E-06   -0.56457E-06  2499   0.339E-03    0.378E-03
RMM:   8    -0.116163316447E+04   -0.87862E-06   -0.32073E-06  2212   0.314E-03
  20 F= -.11616332E+04 E0= -.11616332E+04  d E =-.552943E-03  mag=     8.0000
       N       E                     dE             d eps       ncg     rms          rms(c)
DAV:   1    -0.116163223800E+04    0.92559E-03   -0.71834E-01  6232   0.944E-01    0.191E-01
RMM:   2    -0.116163397012E+04   -0.17321E-02   -0.16735E-02  6537   0.159E-01    0.109E-01
RMM:   3    -0.116163398217E+04   -0.12043E-04   -0.74561E-04  5064   0.485E-02    0.642E-02
RMM:   4    -0.116163395038E+04    0.31792E-04   -0.13976E-04  3693   0.164E-02    0.345E-02
RMM:   5    -0.116163394950E+04    0.87854E-06   -0.70055E-05  3505   0.114E-02    0.109E-02
RMM:   6    -0.116163395263E+04   -0.31344E-05   -0.20945E-05  3413   0.739E-03    0.763E-03
RMM:   7    -0.116163395443E+04   -0.17938E-05   -0.12358E-05  3097   0.450E-03    0.580E-03
RMM:   8    -0.116163395598E+04   -0.15530E-05   -0.71776E-06  2843   0.436E-03
  21 F= -.11616340E+04 E0= -.11616340E+04  d E =-.791508E-03  mag=     8.0000
