       N       E                     dE             d eps       ncg     rms          rms(c)
DAV:   1    -0.116059513035E+04   -0.11606E+04   -0.23294E-06  3576   0.327E-03    0.294E-03
RMM:   2    -0.116059513141E+04   -0.10576E-05   -0.20918E-06  1454   0.230E-03    0.304E-03
RMM:   3    -0.116059513176E+04   -0.35671E-06   -0.72698E-07   869   0.162E-03    0.265E-03
RMM:   4    -0.116059513148E+04    0.27845E-06   -0.13749E-07   706   0.158E-03    0.255E-03
RMM:   5    -0.116059513055E+04    0.93959E-06   -0.24055E-07   836   0.166E-03    0.297E-03
RMM:   6    -0.116059513182E+04   -0.12700E-05   -0.28601E-07   751   0.167E-03    0.242E-03
RMM:   7    -0.116059513546E+04   -0.36480E-05   -0.99714E-06  2160   0.403E-03    0.345E-03
RMM:   8    -0.116059513649E+04   -0.10268E-05   -0.19716E-06  1108   0.183E-03
   1 F= -.11605951E+04 E0= -.11605951E+04  d E =-.116060E+04  mag=     8.0000
       N       E                     dE             d eps       ncg     rms          rms(c)
DAV:   1    -0.116059569796E+04   -0.56249E-03   -0.54869E-01  6352   0.856E-01    0.261E-01
RMM:   2    -0.116059648918E+04   -0.79122E-03   -0.17105E-02  6163   0.169E-01    0.264E-01
RMM:   3    -0.116059633090E+04    0.15827E-03   -0.84217E-04  5841   0.545E-02    0.178E-01
RMM:   4    -0.116059615505E+04    0.17586E-03   -0.62716E-04  5333   0.271E-02    0.899E-02
RMM:   5    -0.116059609464E+04    0.60403E-04   -0.11843E-04  4106   0.178E-02    0.314E-02
RMM:   6    -0.116059609736E+04   -0.27204E-05   -0.37425E-05  3548   0.770E-03    0.232E-02
RMM:   7    -0.116059609776E+04   -0.40156E-06   -0.12963E-05  3311   0.602E-03    0.163E-02
RMM:   8    -0.116059609865E+04   -0.88928E-06   -0.95753E-06  3335   0.412E-03
   2 F= -.11605961E+04 E0= -.11605961E+04  d E =-.962164E-03  mag=     8.0000
       N       E                     dE             d eps       ncg     rms          rms(c)
DAV:   1    -0.116059722391E+04   -0.11262E-02   -0.15416E-01  6192   0.449E-01    0.152E-01
RMM:   2    -0.116059742855E+04   -0.20463E-03   -0.55662E-03  6124   0.969E-02    0.178E-01
RMM:   3    -0.116059736031E+04    0.68234E-04   -0.23653E-04  4278   0.307E-02    0.131E-01
RMM:   4    -0.116059729646E+04    0.63851E-04   -0.22713E-04  4313   0.171E-02    0.681E-02
RMM:   5    -0.116059727299E+04    0.23469E-04   -0.61394E-05  3633   0.110E-02    0.227E-02
RMM:   6    -0.116059727240E+04    0.59431E-06   -0.15531E-05  3164   0.596E-03    0.171E-02
RMM:   7    -0.116059727269E+04   -0.28772E-06   -0.70442E-06  2817   0.391E-03    0.116E-02
RMM:   8    -0.116059727331E+04   -0.61825E-06   -0.46758E-06  2773   0.328E-03
   3 F= -.11605973E+04 E0= -.11605973E+04  d E =-.117465E-02  mag=     8.0000
       N       E                     dE             d eps       ncg     rms          rms(c)
DAV:   1    -0.116059758199E+04   -0.30930E-03   -0.11189E-01  6176   0.388E-01    0.965E-02
RMM:   2    -0.116059783602E+04   -0.25403E-03   -0.29150E-03  6387   0.691E-02    0.773E-02
RMM:   3    -0.116059782637E+04    0.96550E-05   -0.12136E-04  3616   0.228E-02    0.484E-02
RMM:   4    -0.116059781612E+04    0.10249E-04   -0.50579E-05  3454   0.934E-03    0.264E-02
RMM:   5    -0.116059781468E+04    0.14408E-05   -0.15217E-05  3318   0.576E-03    0.893E-03
RMM:   6    -0.116059781532E+04   -0.64934E-06   -0.52698E-06  2862   0.369E-03    0.568E-03
RMM:   7    -0.116059781561E+04   -0.28682E-06   -0.23325E-06  1991   0.277E-03    0.386E-03
RMM:   8    -0.116059781589E+04   -0.28346E-06   -0.14397E-06  1707   0.234E-03
   4 F= -.11605978E+04 E0= -.11605978E+04  d E =-.542588E-03  mag=     8.0000
