       N       E                     dE             d eps       ncg     rms          rms(c)
DAV:   1    -0.115749930250E+04   -0.11575E+04   -0.13224E-05  3816   0.107E-02    0.232E-02
RMM:   2    -0.115749930238E+04    0.12200E-06   -0.12840E-05  3110   0.615E-03    0.368E-02
RMM:   3    -0.115749930287E+04   -0.48311E-06   -0.61316E-06  2600   0.332E-03    0.342E-03
RMM:   4    -0.115749930315E+04   -0.28228E-06   -0.27404E-06  1928   0.295E-03    0.399E-03
RMM:   5    -0.115749930339E+04   -0.23692E-06   -0.19496E-06  1530   0.228E-03    0.496E-03
RMM:   6    -0.115749930358E+04   -0.19491E-06   -0.11161E-06  1271   0.232E-03    0.174E-03
RMM:   7    -0.115749930368E+04   -0.10352E-06   -0.61377E-07  1057   0.195E-03    0.130E-03
RMM:   8    -0.115749930376E+04   -0.73793E-07   -0.35438E-07   940   0.199E-03
   1 F= -.11574993E+04 E0= -.11574993E+04  d E =-.115750E+04  mag=    14.0000
       N       E                     dE             d eps       ncg     rms          rms(c)
DAV:   1    -0.115749959950E+04   -0.29582E-03   -0.23853E-01  6288   0.565E-01    0.142E-01
RMM:   2    -0.115750009681E+04   -0.49731E-03   -0.67045E-03  6118   0.106E-01    0.131E-01
RMM:   3    -0.115750006527E+04    0.31543E-04   -0.27190E-04  4342   0.326E-02    0.882E-02
RMM:   4    -0.115750002445E+04    0.40813E-04   -0.12398E-04  3647   0.143E-02    0.494E-02
RMM:   5    -0.115750001659E+04    0.78609E-05   -0.49286E-05  3513   0.102E-02    0.503E-02
RMM:   6    -0.115750001771E+04   -0.11156E-05   -0.15332E-05  3314   0.620E-03    0.109E-02
RMM:   7    -0.115750001807E+04   -0.36624E-06   -0.63671E-06  2761   0.365E-03    0.101E-02
RMM:   8    -0.115750001833E+04   -0.26070E-06   -0.38647E-06  2641   0.326E-03
   2 F= -.11575000E+04 E0= -.11575000E+04  d E =-.714578E-03  mag=    14.0000
       N       E                     dE             d eps       ncg     rms          rms(c)
DAV:   1    -0.115750029184E+04   -0.27377E-03   -0.54644E-02  6080   0.271E-01    0.669E-02
RMM:   2    -0.115750038122E+04   -0.89375E-04   -0.16073E-03  6041   0.515E-02    0.639E-02
RMM:   3    -0.115750036847E+04    0.12749E-04   -0.64210E-05  3448   0.163E-02    0.423E-02
RMM:   4    -0.115750035484E+04    0.13632E-04   -0.43164E-05  3449   0.799E-03    0.225E-02
RMM:   5    -0.115750035214E+04    0.26971E-05   -0.11931E-05  3088   0.507E-03    0.126E-02
RMM:   6    -0.115750035243E+04   -0.29025E-06   -0.45244E-06  2523   0.308E-03    0.672E-03
RMM:   7    -0.115750035258E+04   -0.15293E-06   -0.19404E-06  1847   0.266E-03    0.424E-03
RMM:   8    -0.115750035267E+04   -0.88883E-07   -0.93382E-07  1300   0.213E-03
   3 F= -.11575004E+04 E0= -.11575004E+04  d E =-.334337E-03  mag=    14.0000
       N       E                     dE             d eps       ncg     rms          rms(c)
DAV:   1    -0.115750053427E+04   -0.18169E-03   -0.60065E-02  6080   0.283E-01    0.581E-02
RMM:   2    -0.115750066029E+04   -0.12602E-03   -0.15184E-03  6084   0.491E-02    0.419E-02
RMM:   3    -0.115750065575E+04    0.45437E-05   -0.62438E-05  3403   0.168E-02    0.269E-02
RMM:   4    -0.115750065138E+04    0.43634E-05   -0.27532E-05  3331   0.654E-03    0.149E-02
RMM:   5    -0.115750065111E+04    0.27208E-06   -0.78064E-06  2881   0.442E-03    0.163E-02
RMM:   6    -0.115750065144E+04   -0.32636E-06   -0.37628E-06  2338   0.285E-03    0.387E-03
RMM:   7    -0.115750065158E+04   -0.14644E-06   -0.15214E-06  1639   0.262E-03    0.285E-03
RMM:   8    -0.115750065167E+04   -0.86540E-07   -0.78991E-07  1204   0.208E-03
   4 F= -.11575007E+04 E0= -.11575007E+04  d E =-.298998E-03  mag=    14.0000
       N       E                     dE             d eps       ncg     rms          rms(c)
DAV:   1    -0.115750077695E+04   -0.12536E-03   -0.93732E-02  6096   0.352E-01    0.672E-02
RMM:   2    -0.115750098334E+04   -0.20639E-03   -0.22719E-03  6152   0.591E-02    0.451E-02
RMM:   3    -0.115750097952E+04    0.38190E-05   -0.94934E-05  3508   0.205E-02    0.286E-02
RMM:   4    -0.115750097582E+04    0.37037E-05   -0.33518E-05  3416   0.737E-03    0.151E-02
RMM:   5    -0.115750097614E+04   -0.32266E-06   -0.97842E-06  3118   0.468E-03    0.119E-02
RMM:   6    -0.115750097660E+04   -0.45834E-06   -0.42291E-06  2524   0.317E-03    0.354E-03
RMM:   7    -0.115750097684E+04   -0.24005E-06   -0.21150E-06  1921   0.271E-03    0.274E-03
RMM:   8    -0.115750097695E+04   -0.11570E-06   -0.10187E-06  1389   0.224E-03
   5 F= -.11575010E+04 E0= -.11575010E+04  d E =-.325285E-03  mag=    14.0000
       N       E                     dE             d eps       ncg     rms          rms(c)
DAV:   1    -0.115750106976E+04   -0.92920E-04   -0.15731E-02  6176   0.143E-01    0.277E-02
RMM:   2    -0.115750109970E+04   -0.29939E-04   -0.36729E-04  4226   0.245E-02    0.184E-02
RMM:   3    -0.115750110027E+04   -0.56761E-06   -0.26356E-05  3298   0.101E-02    0.114E-02
RMM:   4    -0.115750109977E+04    0.49389E-06   -0.92384E-06  3068   0.408E-03    0.943E-03
RMM:   5    -0.115750109961E+04    0.16516E-06   -0.27888E-06  2179   0.298E-03    0.371E-03
RMM:   6    -0.115750109968E+04   -0.74549E-07   -0.12744E-06  1465   0.214E-03    0.143E-03
RMM:   7    -0.115750109973E+04   -0.49084E-07   -0.57464E-07  1173   0.215E-03    0.102E-03
RMM:   8    -0.115750109975E+04   -0.15629E-07   -0.15053E-07   718   0.189E-03
   6 F= -.11575011E+04 E0= -.11575011E+04  d E =-.122791E-03  mag=    14.0000
