       N       E                     dE             d eps       ncg     rms          rms(c)
DAV:   1     0.121100911107E+05    0.12110E+05   -0.42590E+05  6168   0.132E+03
DAV:   2     0.721575333543E+03   -0.11389E+05   -0.10178E+05  6144   0.381E+02
DAV:   3    -0.134810842942E+04   -0.20697E+04   -0.19915E+04  6608   0.168E+02
DAV:   4    -0.148983034341E+04   -0.14172E+03   -0.13925E+03  8080   0.470E+01
DAV:   5    -0.149930719576E+04   -0.94769E+01   -0.94257E+01 11112   0.111E+01    0.183E+02
RMM:   6    -0.116087027313E+04    0.33844E+03   -0.16470E+03  6285   0.363E+01    0.134E+02
RMM:   7    -0.114313948401E+04    0.17731E+02   -0.62180E+01  6388   0.124E+01    0.776E+01
RMM:   8    -0.114587822820E+04   -0.27387E+01   -0.22284E+01  6963   0.524E+00    0.358E+01
RMM:   9    -0.115040702376E+04   -0.45288E+01   -0.90422E+00  6515   0.371E+00    0.167E+01
RMM:  10    -0.115178222066E+04   -0.13752E+01   -0.18103E+00  7210   0.150E+00    0.798E+00
RMM:  11    -0.115288154764E+04   -0.10993E+01   -0.85643E-01  7881   0.853E-01    0.493E+00
RMM:  12    -0.115391524456E+04   -0.10337E+01   -0.85101E-01  6999   0.847E-01    0.278E+00
RMM:  13    -0.115425842257E+04   -0.34318E+00   -0.31581E-01  7484   0.561E-01    0.171E+00
RMM:  14    -0.115437417125E+04   -0.11575E+00   -0.16391E-01  7388   0.384E-01    0.115E+00
RMM:  15    -0.115440000783E+04   -0.25837E-01   -0.58186E-02  7476   0.225E-01    0.589E-01
RMM:  16    -0.115440423945E+04   -0.42316E-02   -0.17146E-02  8138   0.116E-01    0.401E-01
RMM:  17    -0.115440575021E+04   -0.15108E-02   -0.79708E-03  7909   0.748E-02    0.250E-01
RMM:  18    -0.115440608313E+04   -0.33293E-03   -0.23263E-03  6693   0.421E-02    0.106E-01
RMM:  19    -0.115440632781E+04   -0.24468E-03   -0.14469E-03  6026   0.272E-02    0.593E-02
RMM:  20    -0.115440641854E+04   -0.90730E-04   -0.72685E-04  5274   0.221E-02
   1 F= -.11544064E+04 E0= -.11544063E+04  d E =-.115441E+04  mag=    13.9976
       N       E                     dE             d eps       ncg     rms          rms(c)
DAV:   1    -0.109219127140E+04    0.62215E+02   -0.27786E+03  6936   0.424E+01    0.475E+01
RMM:   2    -0.117130822047E+04   -0.79117E+02   -0.59923E+02  8287   0.183E+01    0.770E+01
RMM:   3    -0.115504506503E+04    0.16263E+02   -0.56698E+01  6366   0.871E+00    0.320E+01
RMM:   4    -0.115359116386E+04    0.14539E+01   -0.12158E+01  6881   0.292E+00    0.231E+01
RMM:   5    -0.115295899198E+04    0.63217E+00   -0.27453E+00  7393   0.134E+00    0.208E+01
RMM:   6    -0.115285736991E+04    0.10162E+00   -0.22921E+00  6799   0.111E+00    0.166E+01
RMM:   7    -0.115251784694E+04    0.33952E+00   -0.13147E+00  6565   0.114E+00    0.111E+01
RMM:   8    -0.115262065720E+04   -0.10281E+00   -0.43069E-01  6731   0.665E-01    0.578E+00
RMM:   9    -0.115263272444E+04   -0.12067E-01   -0.19720E-01  7080   0.328E-01    0.371E+00
RMM:  10    -0.115265883553E+04   -0.26111E-01   -0.66551E-02  6970   0.228E-01    0.253E+00
RMM:  11    -0.115267126320E+04   -0.12428E-01   -0.44116E-02  6741   0.201E-01    0.112E+00
RMM:  12    -0.115267300827E+04   -0.17451E-02   -0.17518E-02  7352   0.110E-01    0.382E-01
RMM:  13    -0.115267462204E+04   -0.16138E-02   -0.60017E-03  7325   0.613E-02    0.220E-01
RMM:  14    -0.115267602465E+04   -0.14026E-02   -0.16098E-03  6257   0.341E-02    0.173E-01
RMM:  15    -0.115267766758E+04   -0.16429E-02   -0.15111E-03  5826   0.399E-02    0.113E-01
RMM:  16    -0.115267872222E+04   -0.10546E-02   -0.11282E-03  5138   0.325E-02    0.115E-01
RMM:  17    -0.115267944855E+04   -0.72634E-03   -0.66109E-04  4479   0.250E-02    0.848E-02
RMM:  18    -0.115268011905E+04   -0.67050E-03   -0.72537E-04  4480   0.268E-02    0.509E-02
RMM:  19    -0.115268061411E+04   -0.49505E-03   -0.83151E-04  4460   0.284E-02    0.370E-02
RMM:  20    -0.115268086389E+04   -0.24979E-03   -0.65308E-04  4359   0.242E-02    0.242E-02
RMM:  21    -0.115268094507E+04   -0.81175E-04   -0.22575E-04  3886   0.131E-02
   2 F= -.11526809E+04 E0= -.11526809E+04  d E =0.172547E+01  mag=    14.0142
       N       E                     dE             d eps       ncg     rms          rms(c)
DAV:   1    -0.113576554326E+04    0.16915E+02   -0.72071E+02  6472   0.225E+01    0.222E+01
RMM:   2    -0.115414365998E+04   -0.18378E+02   -0.35509E+01  6248   0.668E+00    0.182E+01
RMM:   3    -0.115485218195E+04   -0.70852E+00   -0.21529E+00  6243   0.229E+00    0.833E+00
RMM:   4    -0.115481082281E+04    0.41359E-01   -0.66630E-01  6856   0.939E-01    0.653E+00
RMM:   5    -0.115480940127E+04    0.14215E-02   -0.28700E-01  6718   0.528E-01    0.277E+00
RMM:   6    -0.115483483090E+04   -0.25430E-01   -0.57447E-02  7414   0.248E-01    0.152E+00
RMM:   7    -0.115484133380E+04   -0.65029E-02   -0.13588E-02  7809   0.119E-01    0.696E-01
RMM:   8    -0.115484753845E+04   -0.62047E-02   -0.58537E-03  7193   0.905E-02    0.374E-01
RMM:   9    -0.115485341169E+04   -0.58732E-02   -0.48590E-03  6414   0.865E-02    0.214E-01
RMM:  10    -0.115485669245E+04   -0.32808E-02   -0.32663E-03  6246   0.588E-02    0.168E-01
RMM:  11    -0.115486062526E+04   -0.39328E-02   -0.33371E-03  5597   0.699E-02    0.129E-01
RMM:  12    -0.115486405713E+04   -0.34319E-02   -0.52231E-03  5462   0.831E-02    0.909E-02
RMM:  13    -0.115486539111E+04   -0.13340E-02   -0.22679E-03  5032   0.387E-02    0.787E-02
RMM:  14    -0.115486665061E+04   -0.12595E-02   -0.12155E-03  4699   0.333E-02    0.700E-02
RMM:  15    -0.115486820387E+04   -0.15533E-02   -0.20882E-03  4804   0.472E-02    0.608E-02
RMM:  16    -0.115486931866E+04   -0.11148E-02   -0.19961E-03  4764   0.417E-02    0.502E-02
RMM:  17    -0.115487032417E+04   -0.10055E-02   -0.29411E-03  4913   0.570E-02    0.367E-02
RMM:  18    -0.115487081871E+04   -0.49455E-03   -0.21088E-03  4790   0.422E-02    0.255E-02
RMM:  19    -0.115487103202E+04   -0.21330E-03   -0.80563E-04  4482   0.252E-02    0.179E-02
RMM:  20    -0.115487110454E+04   -0.72523E-04   -0.24909E-04  3912   0.148E-02
   3 F= -.11548711E+04 E0= -.11548711E+04  d E =-.219016E+01  mag=    14.0001
       N       E                     dE             d eps       ncg     rms          rms(c)
DAV:   1    -0.115506152844E+04   -0.19050E+00   -0.13433E+02  6400   0.111E+01    0.589E+00
RMM:   2    -0.115552743954E+04   -0.46591E+00   -0.39390E+00  6167   0.239E+00    0.489E+00
RMM:   3    -0.115556560319E+04   -0.38164E-01   -0.23235E-01  6546   0.781E-01    0.303E+00
RMM:   4    -0.115555260573E+04    0.12997E-01   -0.84532E-02  6420   0.308E-01    0.144E+00
RMM:   5    -0.115554700500E+04    0.56007E-02   -0.22894E-02  6307   0.189E-01    0.404E-01
RMM:   6    -0.115554704329E+04   -0.38293E-04   -0.30786E-03  7172   0.520E-02    0.204E-01
RMM:   7    -0.115554697077E+04    0.72520E-04   -0.93037E-04  6327   0.259E-02    0.137E-01
RMM:   8    -0.115554701362E+04   -0.42851E-04   -0.52068E-04  5186   0.232E-02
   4 F= -.11555470E+04 E0= -.11555470E+04  d E =-.675909E+00  mag=    14.0000
       N       E                     dE             d eps       ncg     rms          rms(c)
DAV:   1    -0.115565436664E+04   -0.10740E+00   -0.36913E+01  6544   0.488E+00    0.384E+00
RMM:   2    -0.115585427022E+04   -0.19990E+00   -0.84418E-01  6210   0.953E-01    0.241E+00
RMM:   3    -0.115587810245E+04   -0.23832E-01   -0.47379E-02  6245   0.317E-01    0.101E+00
RMM:   4    -0.115587463163E+04    0.34708E-02   -0.16153E-02  6710   0.122E-01    0.532E-01
RMM:   5    -0.115587363736E+04    0.99427E-03   -0.49548E-03  6144   0.661E-02    0.223E-01
RMM:   6    -0.115587374285E+04   -0.10548E-03   -0.87168E-04  5708   0.313E-02    0.131E-01
RMM:   7    -0.115587384783E+04   -0.10498E-03   -0.24892E-04  4259   0.166E-02    0.801E-02
RMM:   8    -0.115587397904E+04   -0.13122E-03   -0.15676E-04  4022   0.144E-02    0.686E-02
RMM:   9    -0.115587404964E+04   -0.70603E-04   -0.82869E-05  3806   0.117E-02
   5 F= -.11558740E+04 E0= -.11558740E+04  d E =-.327036E+00  mag=    14.0000
       N       E                     dE             d eps       ncg     rms          rms(c)
DAV:   1    -0.115581186861E+04    0.62110E-01   -0.46408E+01  6408   0.514E+00    0.465E+00
RMM:   2    -0.115611631643E+04   -0.30445E+00   -0.10387E+00  6301   0.999E-01    0.305E+00
RMM:   3    -0.115615794187E+04   -0.41625E-01   -0.58010E-02  6288   0.326E-01    0.125E+00
RMM:   4    -0.115615706312E+04    0.87875E-03   -0.13716E-02  6632   0.114E-01    0.646E-01
RMM:   5    -0.115615768275E+04   -0.61963E-03   -0.59672E-03  6047   0.710E-02    0.254E-01
RMM:   6    -0.115615817900E+04   -0.49626E-03   -0.94932E-04  5283   0.325E-02    0.149E-01
RMM:   7    -0.115615853086E+04   -0.35186E-03   -0.31314E-04  4150   0.179E-02    0.897E-02
RMM:   8    -0.115615901684E+04   -0.48598E-03   -0.32832E-04  4103   0.185E-02    0.643E-02
RMM:   9    -0.115615935043E+04   -0.33359E-03   -0.23658E-04  3925   0.156E-02    0.513E-02
RMM:  10    -0.115615954398E+04   -0.19355E-03   -0.12645E-04  3732   0.112E-02    0.440E-02
RMM:  11    -0.115615995320E+04   -0.40922E-03   -0.44734E-04  4099   0.233E-02    0.394E-02
RMM:  12    -0.115616022114E+04   -0.26794E-03   -0.71085E-04  4295   0.281E-02    0.213E-02
RMM:  13    -0.115616030230E+04   -0.81160E-04   -0.21373E-04  3730   0.140E-02
   6 F= -.11561603E+04 E0= -.11561603E+04  d E =-.286253E+00  mag=    14.0000
       N       E                     dE             d eps       ncg     rms          rms(c)
DAV:   1    -0.115540341676E+04    0.75680E+00   -0.78980E+01  6352   0.720E+00    0.640E+00
RMM:   2    -0.115621484055E+04   -0.81142E+00   -0.19394E+00  6285   0.149E+00    0.492E+00
RMM:   3    -0.115629253618E+04   -0.77696E-01   -0.11606E-01  6347   0.494E-01    0.207E+00
RMM:   4    -0.115628989960E+04    0.26366E-02   -0.28461E-02  6940   0.175E-01    0.102E+00
RMM:   5    -0.115629019719E+04   -0.29760E-03   -0.12091E-02  6555   0.102E-01    0.442E-01
RMM:   6    -0.115629079022E+04   -0.59302E-03   -0.20064E-03  6273   0.426E-02    0.194E-01
RMM:   7    -0.115629107478E+04   -0.28456E-03   -0.48431E-04  4715   0.206E-02    0.135E-01
RMM:   8    -0.115629151064E+04   -0.43586E-03   -0.49354E-04  4399   0.229E-02    0.586E-02
RMM:   9    -0.115629169883E+04   -0.18819E-03   -0.21267E-04  3954   0.149E-02    0.455E-02
RMM:  10    -0.115629182080E+04   -0.12197E-03   -0.10269E-04  3726   0.115E-02    0.415E-02
RMM:  11    -0.115629203076E+04   -0.20996E-03   -0.17814E-04  3814   0.147E-02    0.307E-02
RMM:  12    -0.115629220509E+04   -0.17433E-03   -0.28572E-04  3940   0.181E-02    0.187E-02
RMM:  13    -0.115629226932E+04   -0.64230E-04   -0.15469E-04  3630   0.119E-02
   7 F= -.11562923E+04 E0= -.11562923E+04  d E =-.131967E+00  mag=    14.0000
       N       E                     dE             d eps       ncg     rms          rms(c)
DAV:   1    -0.115626232420E+04    0.29881E-01   -0.68230E+00  6592   0.268E+00    0.150E+00
RMM:   2    -0.115629804830E+04   -0.35724E-01   -0.15051E-01  6310   0.489E-01    0.902E-01
RMM:   3    -0.115630280113E+04   -0.47528E-02   -0.87850E-03  6423   0.159E-01    0.401E-01
RMM:   4    -0.115630241920E+04    0.38193E-03   -0.22295E-03  6682   0.531E-02    0.208E-01
RMM:   5    -0.115630238765E+04    0.31547E-04   -0.99459E-04  5654   0.315E-02    0.734E-02
RMM:   6    -0.115630238933E+04   -0.16754E-05   -0.92831E-05  3781   0.151E-02    0.397E-02
RMM:   7    -0.115630238938E+04   -0.50815E-07   -0.52674E-05  3634   0.836E-03    0.244E-02
RMM:   8    -0.115630239554E+04   -0.61635E-05   -0.34488E-05  3570   0.815E-03
   8 F= -.11563024E+04 E0= -.11563024E+04  d E =-.101262E-01  mag=    14.0000
       N       E                     dE             d eps       ncg     rms          rms(c)
DAV:   1    -0.115630732281E+04   -0.49334E-02   -0.10621E+01  6352   0.328E+00    0.134E+00
RMM:   2    -0.115633986697E+04   -0.32544E-01   -0.27789E-01  6245   0.682E-01    0.103E+00
RMM:   3    -0.115634243277E+04   -0.25658E-02   -0.21881E-02  6929   0.190E-01    0.741E-01
RMM:   4    -0.115634170880E+04    0.72397E-03   -0.32090E-03  6818   0.576E-02    0.385E-01
RMM:   5    -0.115634169589E+04    0.12905E-04   -0.14350E-03  5791   0.343E-02    0.931E-02
RMM:   6    -0.115634171816E+04   -0.22273E-04   -0.18309E-04  3878   0.184E-02    0.564E-02
RMM:   7    -0.115634173490E+04   -0.16734E-04   -0.94858E-05  3668   0.987E-03    0.326E-02
RMM:   8    -0.115634174601E+04   -0.11116E-04   -0.53949E-05  3595   0.936E-03
   9 F= -.11563417E+04 E0= -.11563417E+04  d E =-.393505E-01  mag=    14.0000
       N       E                     dE             d eps       ncg     rms          rms(c)
DAV:   1    -0.115631634499E+04    0.25390E-01   -0.10936E+01  6400   0.358E+00    0.134E+00
RMM:   2    -0.115635557465E+04   -0.39230E-01   -0.25122E-01  6414   0.631E-01    0.783E-01
RMM:   3    -0.115635900458E+04   -0.34299E-02   -0.13100E-02  6660   0.191E-01    0.352E-01
RMM:   4    -0.115635849958E+04    0.50500E-03   -0.28250E-03  7662   0.594E-02    0.198E-01
RMM:   5    -0.115635838374E+04    0.11584E-03   -0.15208E-03  6313   0.350E-02    0.608E-02
RMM:   6    -0.115635838762E+04   -0.38794E-05   -0.14931E-04  3935   0.172E-02    0.355E-02
RMM:   7    -0.115635839040E+04   -0.27753E-05   -0.74356E-05  3688   0.948E-03    0.218E-02
RMM:   8    -0.115635839349E+04   -0.30966E-05   -0.51173E-05  3621   0.909E-03
  10 F= -.11563584E+04 E0= -.11563584E+04  d E =-.166475E-01  mag=    14.0000
       N       E                     dE             d eps       ncg     rms          rms(c)
DAV:   1    -0.115635725104E+04    0.11394E-02   -0.64860E+00  6368   0.282E+00    0.668E-01
RMM:   2    -0.115637278249E+04   -0.15531E-01   -0.16014E-01  6341   0.520E-01    0.478E-01
RMM:   3    -0.115637332464E+04   -0.54215E-03   -0.10697E-02  6748   0.156E-01    0.351E-01
RMM:   4    -0.115637295977E+04    0.36486E-03   -0.16308E-03  7360   0.450E-02    0.213E-01
RMM:   5    -0.115637286209E+04    0.97683E-04   -0.10115E-03  5829   0.295E-02    0.546E-02
RMM:   6    -0.115637286853E+04   -0.64419E-05   -0.12008E-04  3783   0.163E-02    0.373E-02
RMM:   7    -0.115637287453E+04   -0.60017E-05   -0.62627E-05  3664   0.929E-03    0.217E-02
RMM:   8    -0.115637287689E+04   -0.23588E-05   -0.40364E-05  3544   0.904E-03
  11 F= -.11563729E+04 E0= -.11563729E+04  d E =-.144834E-01  mag=    14.0000
       N       E                     dE             d eps       ncg     rms          rms(c)
DAV:   1    -0.115635816206E+04    0.14712E-01   -0.60003E+00  6432   0.270E+00    0.941E-01
RMM:   2    -0.115637828058E+04   -0.20119E-01   -0.13724E-01  6443   0.460E-01    0.544E-01
RMM:   3    -0.115637981340E+04   -0.15328E-02   -0.69149E-03  6610   0.144E-01    0.265E-01
RMM:   4    -0.115637953604E+04    0.27736E-03   -0.15686E-03  7090   0.446E-02    0.139E-01
RMM:   5    -0.115637949051E+04    0.45529E-04   -0.69245E-04  5684   0.259E-02    0.513E-02
RMM:   6    -0.115637949607E+04   -0.55606E-05   -0.82809E-05  3731   0.138E-02    0.241E-02
RMM:   7    -0.115637950008E+04   -0.40133E-05   -0.53467E-05  3610   0.857E-03    0.155E-02
RMM:   8    -0.115637950364E+04   -0.35598E-05   -0.35873E-05  3535   0.834E-03
  12 F= -.11563795E+04 E0= -.11563795E+04  d E =-.662675E-02  mag=    14.0000
       N       E                     dE             d eps       ncg     rms          rms(c)
DAV:   1    -0.115637684471E+04    0.26554E-02   -0.44602E+00  6384   0.236E+00    0.571E-01
RMM:   2    -0.115638793382E+04   -0.11089E-01   -0.11023E-01  6359   0.430E-01    0.401E-01
RMM:   3    -0.115638827753E+04   -0.34371E-03   -0.67409E-03  6705   0.128E-01    0.276E-01
RMM:   4    -0.115638799313E+04    0.28440E-03   -0.11743E-03  6841   0.390E-02    0.146E-01
RMM:   5    -0.115638796881E+04    0.24321E-04   -0.48310E-04  5114   0.229E-02    0.406E-02
RMM:   6    -0.115638797604E+04   -0.72319E-05   -0.77874E-05  3681   0.131E-02    0.257E-02
RMM:   7    -0.115638798098E+04   -0.49368E-05   -0.48002E-05  3575   0.853E-03    0.163E-02
RMM:   8    -0.115638798363E+04   -0.26515E-05   -0.29515E-05  3461   0.787E-03
  13 F= -.11563880E+04 E0= -.11563880E+04  d E =-.847999E-02  mag=    14.0000
       N       E                     dE             d eps       ncg     rms          rms(c)
DAV:   1    -0.115638348391E+04    0.44971E-02   -0.40839E+00  6360   0.230E+00    0.501E-01
RMM:   2    -0.115639329207E+04   -0.98082E-02   -0.99115E-02  6347   0.403E-01    0.327E-01
RMM:   3    -0.115639349813E+04   -0.20606E-03   -0.55041E-03  6565   0.126E-01    0.220E-01
RMM:   4    -0.115639327116E+04    0.22697E-03   -0.11140E-03  6882   0.382E-02    0.117E-01
RMM:   5    -0.115639324204E+04    0.29117E-04   -0.44371E-04  5094   0.222E-02    0.308E-02
RMM:   6    -0.115639324669E+04   -0.46532E-05   -0.68177E-05  3664   0.128E-02    0.215E-02
RMM:   7    -0.115639325102E+04   -0.43326E-05   -0.43663E-05  3552   0.829E-03    0.136E-02
RMM:   8    -0.115639325376E+04   -0.27340E-05   -0.27623E-05  3451   0.771E-03
  14 F= -.11563933E+04 E0= -.11563933E+04  d E =-.527013E-02  mag=    14.0000
       N       E                     dE             d eps       ncg     rms          rms(c)
DAV:   1    -0.115639105432E+04    0.21967E-02   -0.23426E+00  6424   0.176E+00    0.374E-01
RMM:   2    -0.115639674421E+04   -0.56899E-02   -0.55915E-02  6234   0.297E-01    0.220E-01
RMM:   3    -0.115639688961E+04   -0.14540E-03   -0.29658E-03  6274   0.103E-01    0.133E-01
RMM:   4    -0.115639677866E+04    0.11095E-03   -0.67997E-04  6079   0.297E-02    0.731E-02
RMM:   5    -0.115639675628E+04    0.22372E-04   -0.21590E-04  3999   0.180E-02    0.430E-02
RMM:   6    -0.115639676174E+04   -0.54559E-05   -0.53563E-05  3562   0.119E-02    0.178E-02
RMM:   7    -0.115639676507E+04   -0.33347E-05   -0.32443E-05  3483   0.784E-03    0.114E-02
RMM:   8    -0.115639676683E+04   -0.17597E-05   -0.19811E-05  3363   0.717E-03
  15 F= -.11563968E+04 E0= -.11563968E+04  d E =-.351308E-02  mag=    14.0000
       N       E                     dE             d eps       ncg     rms          rms(c)
DAV:   1    -0.115639600448E+04    0.76059E-03   -0.11059E+00  6440   0.120E+00    0.242E-01
RMM:   2    -0.115639864059E+04   -0.26361E-02   -0.26486E-02  6275   0.203E-01    0.146E-01
RMM:   3    -0.115639868397E+04   -0.43379E-04   -0.13733E-03  5974   0.689E-02    0.882E-02
RMM:   4    -0.115639862708E+04    0.56896E-04   -0.30956E-04  4315   0.207E-02    0.493E-02
RMM:   5    -0.115639861816E+04    0.89195E-05   -0.92558E-05  3587   0.140E-02    0.297E-02
RMM:   6    -0.115639862214E+04   -0.39881E-05   -0.33629E-05  3475   0.898E-03    0.143E-02
RMM:   7    -0.115639862407E+04   -0.19238E-05   -0.18804E-05  3370   0.644E-03    0.966E-03
RMM:   8    -0.115639862523E+04   -0.11620E-05   -0.12325E-05  3198   0.534E-03
  16 F= -.11563986E+04 E0= -.11563986E+04  d E =-.185840E-02  mag=    14.0000
       N       E                     dE             d eps       ncg     rms          rms(c)
DAV:   1    -0.115639475663E+04    0.38674E-02   -0.27420E+00  6384   0.189E+00    0.371E-01
RMM:   2    -0.115640118214E+04   -0.64255E-02   -0.64878E-02  6245   0.318E-01    0.217E-01
RMM:   3    -0.115640128974E+04   -0.10760E-03   -0.33586E-03  6256   0.108E-01    0.134E-01
RMM:   4    -0.115640116548E+04    0.12426E-03   -0.75687E-04  6242   0.313E-02    0.755E-02
RMM:   5    -0.115640113945E+04    0.26037E-04   -0.25539E-04  4173   0.183E-02    0.427E-02
RMM:   6    -0.115640114432E+04   -0.48730E-05   -0.54661E-05  3561   0.119E-02    0.187E-02
RMM:   7    -0.115640114753E+04   -0.32118E-05   -0.31782E-05  3483   0.776E-03    0.117E-02
RMM:   8    -0.115640114911E+04   -0.15766E-05   -0.19074E-05  3380   0.711E-03
  17 F= -.11564011E+04 E0= -.11564011E+04  d E =-.252388E-02  mag=    14.0000
       N       E                     dE             d eps       ncg     rms          rms(c)
DAV:   1    -0.115639922054E+04    0.19270E-02   -0.13790E+00  6408   0.134E+00    0.252E-01
RMM:   2    -0.115640243733E+04   -0.32168E-02   -0.32911E-02  6314   0.225E-01    0.147E-01
RMM:   3    -0.115640246129E+04   -0.23963E-04   -0.16577E-03  6076   0.750E-02    0.910E-02
RMM:   4    -0.115640239511E+04    0.66183E-04   -0.36954E-04  4659   0.225E-02    0.504E-02
RMM:   5    -0.115640238387E+04    0.11235E-04   -0.11050E-04  3620   0.148E-02    0.285E-02
RMM:   6    -0.115640238826E+04   -0.43911E-05   -0.37264E-05  3488   0.966E-03    0.151E-02
RMM:   7    -0.115640239052E+04   -0.22538E-05   -0.21554E-05  3367   0.659E-03    0.959E-03
RMM:   8    -0.115640239172E+04   -0.12009E-05   -0.13543E-05  3220   0.583E-03
  18 F= -.11564024E+04 E0= -.11564024E+04  d E =-.124261E-02  mag=    14.0000
       N       E                     dE             d eps       ncg     rms          rms(c)
DAV:   1    -0.115640007411E+04    0.23164E-02   -0.12977E+00  6392   0.130E+00    0.256E-01
RMM:   2    -0.115640315169E+04   -0.30776E-02   -0.30889E-02  6284   0.219E-01    0.148E-01
RMM:   3    -0.115640319945E+04   -0.47752E-04   -0.15773E-03  6035   0.730E-02    0.888E-02
RMM:   4    -0.115640313810E+04    0.61342E-04   -0.33800E-04  4428   0.215E-02    0.500E-02
RMM:   5    -0.115640312333E+04    0.14772E-04   -0.11174E-04  3609   0.147E-02    0.236E-02
RMM:   6    -0.115640312781E+04   -0.44740E-05   -0.36451E-05  3480   0.954E-03    0.159E-02
RMM:   7    -0.115640312990E+04   -0.20917E-05   -0.20526E-05  3360   0.640E-03    0.895E-03
RMM:   8    -0.115640313106E+04   -0.11587E-05   -0.12808E-05  3176   0.568E-03
  19 F= -.11564031E+04 E0= -.11564031E+04  d E =-.739337E-03  mag=    14.0000
       N       E                     dE             d eps       ncg     rms          rms(c)
DAV:   1    -0.115640033530E+04    0.27946E-02   -0.12781E+00  6400   0.129E+00    0.253E-01
RMM:   2    -0.115640338751E+04   -0.30522E-02   -0.30561E-02  6322   0.219E-01    0.145E-01
RMM:   3    -0.115640343191E+04   -0.44393E-04   -0.15361E-03  6052   0.714E-02    0.872E-02
RMM:   4    -0.115640337170E+04    0.60206E-04   -0.30656E-04  4322   0.211E-02    0.493E-02
RMM:   5    -0.115640335874E+04    0.12962E-04   -0.10965E-04  3606   0.145E-02    0.231E-02
RMM:   6    -0.115640336306E+04   -0.43207E-05   -0.35353E-05  3482   0.933E-03    0.154E-02
RMM:   7    -0.115640336511E+04   -0.20541E-05   -0.19867E-05  3325   0.622E-03    0.887E-03
RMM:   8    -0.115640336627E+04   -0.11527E-05   -0.12224E-05  3127   0.547E-03
  20 F= -.11564034E+04 E0= -.11564034E+04  d E =-.235210E-03  mag=    14.0000
       N       E                     dE             d eps       ncg     rms          rms(c)
DAV:   1    -0.115640058209E+04    0.27830E-02   -0.10933E+00  6408   0.120E+00    0.241E-01
RMM:   2    -0.115640321274E+04   -0.26306E-02   -0.26186E-02  6338   0.203E-01    0.138E-01
RMM:   3    -0.115640325061E+04   -0.37879E-04   -0.13011E-03  5907   0.655E-02    0.818E-02
RMM:   4    -0.115640319718E+04    0.53430E-04   -0.24917E-04  4019   0.198E-02    0.465E-02
RMM:   5    -0.115640318659E+04    0.10596E-04   -0.97262E-05  3585   0.138E-02    0.253E-02
RMM:   6    -0.115640319046E+04   -0.38731E-05   -0.33016E-05  3461   0.903E-03    0.156E-02
RMM:   7    -0.115640319243E+04   -0.19703E-05   -0.18660E-05  3288   0.607E-03    0.907E-03
RMM:   8    -0.115640319346E+04   -0.10252E-05   -0.11217E-05  3048   0.531E-03
  21 F= -.11564032E+04 E0= -.11564032E+04  d E =0.172809E-03  mag=    14.0000
       N       E                     dE             d eps       ncg     rms          rms(c)
DAV:   1    -0.115640053948E+04    0.26529E-02   -0.88329E-01  6384   0.108E+00    0.224E-01
RMM:   2    -0.115640269450E+04   -0.21550E-02   -0.21277E-02  6325   0.184E-01    0.130E-01
RMM:   3    -0.115640273558E+04   -0.41075E-04   -0.10679E-03  5719   0.594E-02    0.745E-02
RMM:   4    -0.115640269146E+04    0.44119E-04   -0.18873E-04  3807   0.180E-02    0.432E-02
RMM:   5    -0.115640268045E+04    0.11007E-04   -0.85568E-05  3560   0.129E-02    0.340E-02
RMM:   6    -0.115640268386E+04   -0.34112E-05   -0.31690E-05  3448   0.885E-03    0.151E-02
RMM:   7    -0.115640268571E+04   -0.18527E-05   -0.16867E-05  3282   0.584E-03    0.103E-02
RMM:   8    -0.115640268665E+04   -0.93671E-06   -0.99313E-06  2969   0.500E-03
  22 F= -.11564027E+04 E0= -.11564027E+04  d E =0.506806E-03  mag=    14.0000
       N       E                     dE             d eps       ncg     rms          rms(c)
DAV:   1    -0.115639964378E+04    0.30419E-02   -0.91868E-01  6368   0.110E+00    0.233E-01
RMM:   2    -0.115640191421E+04   -0.22704E-02   -0.22137E-02  6333   0.187E-01    0.133E-01
RMM:   3    -0.115640196025E+04   -0.46043E-04   -0.10986E-03  5778   0.604E-02    0.755E-02
RMM:   4    -0.115640191318E+04    0.47065E-04   -0.19523E-04  3820   0.183E-02    0.425E-02
RMM:   5    -0.115640190384E+04    0.93476E-05   -0.85577E-05  3565   0.130E-02    0.265E-02
RMM:   6    -0.115640190737E+04   -0.35313E-05   -0.30488E-05  3455   0.866E-03    0.153E-02
RMM:   7    -0.115640190918E+04   -0.18142E-05   -0.16638E-05  3246   0.577E-03    0.932E-03
RMM:   8    -0.115640191020E+04   -0.10162E-05   -0.99045E-06  3004   0.499E-03
  23 F= -.11564019E+04 E0= -.11564019E+04  d E =0.776454E-03  mag=    14.0000
       N       E                     dE             d eps       ncg     rms          rms(c)
DAV:   1    -0.115640009079E+04    0.18184E-02   -0.42100E-01  6320   0.745E-01    0.170E-01
RMM:   2    -0.115640117204E+04   -0.10812E-02   -0.10232E-02  6349   0.128E-01    0.977E-02
RMM:   3    -0.115640119714E+04   -0.25101E-04   -0.47534E-04  4624   0.409E-02    0.531E-02
RMM:   4    -0.115640117521E+04    0.21934E-04   -0.98283E-05  3583   0.137E-02    0.295E-02
RMM:   5    -0.115640117161E+04    0.35933E-05   -0.46192E-05  3479   0.952E-03    0.197E-02
RMM:   6    -0.115640117369E+04   -0.20796E-05   -0.18645E-05  3358   0.660E-03    0.113E-02
RMM:   7    -0.115640117477E+04   -0.10823E-05   -0.97547E-06  2915   0.461E-03    0.629E-03
RMM:   8    -0.115640117546E+04   -0.68090E-06   -0.57830E-06  2541   0.383E-03
  24 F= -.11564012E+04 E0= -.11564012E+04  d E =0.734742E-03  mag=    14.0000
       N       E                     dE             d eps       ncg     rms          rms(c)
DAV:   1    -0.115639936378E+04    0.18110E-02   -0.39176E-01  6256   0.718E-01    0.163E-01
RMM:   2    -0.115640036755E+04   -0.10038E-02   -0.94406E-03  6299   0.123E-01    0.919E-02
RMM:   3    -0.115640039538E+04   -0.27836E-04   -0.44833E-04  4559   0.401E-02    0.498E-02
RMM:   4    -0.115640037719E+04    0.18187E-04   -0.91205E-05  3557   0.130E-02    0.282E-02
RMM:   5    -0.115640037382E+04    0.33773E-05   -0.41207E-05  3466   0.906E-03    0.206E-02
RMM:   6    -0.115640037568E+04   -0.18656E-05   -0.17002E-05  3296   0.631E-03    0.102E-02
RMM:   7    -0.115640037670E+04   -0.10149E-05   -0.88144E-06  2849   0.439E-03    0.578E-03
RMM:   8    -0.115640037731E+04   -0.60993E-06   -0.50958E-06  2451   0.367E-03
  25 F= -.11564004E+04 E0= -.11564004E+04  d E =0.798147E-03  mag=    14.0000
       N       E                     dE             d eps       ncg     rms          rms(c)
DAV:   1    -0.115639859044E+04    0.17863E-02   -0.37045E-01  6256   0.700E-01    0.163E-01
RMM:   2    -0.115639955074E+04   -0.96030E-03   -0.89707E-03  6296   0.120E-01    0.907E-02
RMM:   3    -0.115639957958E+04   -0.28837E-04   -0.42476E-04  4530   0.395E-02    0.488E-02
RMM:   4    -0.115639956250E+04    0.17086E-04   -0.88609E-05  3550   0.128E-02    0.279E-02
RMM:   5    -0.115639955909E+04    0.34077E-05   -0.38846E-05  3459   0.891E-03    0.230E-02
RMM:   6    -0.115639956077E+04   -0.16779E-05   -0.16558E-05  3309   0.621E-03    0.974E-03
RMM:   7    -0.115639956176E+04   -0.99065E-06   -0.84883E-06  2827   0.434E-03    0.599E-03
RMM:   8    -0.115639956232E+04   -0.56766E-06   -0.49541E-06  2434   0.361E-03
  26 F= -.11563996E+04 E0= -.11563996E+04  d E =0.814984E-03  mag=    14.0000
       N       E                     dE             d eps       ncg     rms          rms(c)
DAV:   1    -0.115639803683E+04    0.15249E-02   -0.27475E-01  6256   0.605E-01    0.149E-01
RMM:   2    -0.115639876713E+04   -0.73031E-03   -0.67057E-03  6283   0.105E-01    0.840E-02
RMM:   3    -0.115639879229E+04   -0.25156E-04   -0.31270E-04  4235   0.343E-02    0.446E-02
RMM:   4    -0.115639877853E+04    0.13760E-04   -0.72920E-05  3521   0.116E-02    0.252E-02
RMM:   5    -0.115639877612E+04    0.24097E-05   -0.30598E-05  3431   0.800E-03    0.207E-02
RMM:   6    -0.115639877748E+04   -0.13647E-05   -0.13813E-05  3266   0.560E-03    0.915E-03
RMM:   7    -0.115639877830E+04   -0.81086E-06   -0.67715E-06  2697   0.399E-03    0.506E-03
RMM:   8    -0.115639877883E+04   -0.53468E-06   -0.40487E-06  2299   0.327E-03
  27 F= -.11563988E+04 E0= -.11563988E+04  d E =0.783494E-03  mag=    14.0000
       N       E                     dE             d eps       ncg     rms          rms(c)
DAV:   1    -0.115639665000E+04    0.21283E-02   -0.44000E-01  6240   0.766E-01    0.182E-01
RMM:   2    -0.115639779899E+04   -0.11490E-02   -0.10652E-02  6328   0.132E-01    0.101E-01
RMM:   3    -0.115639783666E+04   -0.37664E-04   -0.50998E-04  4732   0.426E-02    0.534E-02
RMM:   4    -0.115639781521E+04    0.21447E-04   -0.10060E-04  3559   0.139E-02    0.301E-02
RMM:   5    -0.115639781077E+04    0.44390E-05   -0.47259E-05  3480   0.971E-03    0.193E-02
RMM:   6    -0.115639781285E+04   -0.20833E-05   -0.18560E-05  3337   0.664E-03    0.117E-02
RMM:   7    -0.115639781396E+04   -0.11033E-05   -0.96774E-06  2898   0.457E-03    0.600E-03
RMM:   8    -0.115639781465E+04   -0.69152E-06   -0.56677E-06  2550   0.381E-03
  28 F= -.11563978E+04 E0= -.11563978E+04  d E =0.964180E-03  mag=    14.0000
       N       E                     dE             d eps       ncg     rms          rms(c)
DAV:   1    -0.115639668968E+04    0.11243E-02   -0.18308E-01  6288   0.498E-01    0.121E-01
RMM:   2    -0.115639717367E+04   -0.48399E-03   -0.45138E-03  6253   0.861E-02    0.673E-02
RMM:   3    -0.115639718899E+04   -0.15319E-04   -0.20183E-04  3834   0.286E-02    0.352E-02
RMM:   4    -0.115639718182E+04    0.71668E-05   -0.54267E-05  3483   0.101E-02    0.202E-02
RMM:   5    -0.115639718045E+04    0.13776E-05   -0.22556E-05  3367   0.686E-03    0.188E-02
RMM:   6    -0.115639718145E+04   -0.10020E-05   -0.10743E-05  3017   0.482E-03    0.767E-03
RMM:   7    -0.115639718209E+04   -0.64292E-06   -0.51704E-06  2487   0.359E-03    0.423E-03
RMM:   8    -0.115639718252E+04   -0.42711E-06   -0.32956E-06  2167   0.290E-03
  29 F= -.11563972E+04 E0= -.11563972E+04  d E =0.632132E-03  mag=    14.0000
