       N       E                     dE             d eps       ncg     rms          rms(c)
DAV:   1    -0.115699038583E+04   -0.11570E+04   -0.45832E-04 11816   0.397E-02    0.533E-02
RMM:   2    -0.115699083952E+04   -0.45369E-03   -0.25133E-04  7668   0.208E-02    0.672E-02
RMM:   3    -0.115699090494E+04   -0.65419E-04   -0.48817E-05  6517   0.779E-03    0.612E-02
RMM:   4    -0.115699090123E+04    0.37055E-05   -0.17168E-05  5958   0.533E-03    0.629E-02
RMM:   5    -0.115699090695E+04   -0.57191E-05   -0.62071E-06  4966   0.317E-03    0.624E-02
RMM:   6    -0.115699075866E+04    0.14829E-03   -0.40121E-05  6386   0.795E-03    0.681E-02
RMM:   7    -0.115699060107E+04    0.15759E-03   -0.45300E-05  6194   0.674E-03    0.835E-02
RMM:   8    -0.115699055499E+04    0.46085E-04   -0.19482E-05  5680   0.475E-03
   1 F= -.11569906E+04 E0= -.11569906E+04  d E =-.115699E+04  mag=    14.0000
       N       E                     dE             d eps       ncg     rms          rms(c)
DAV:   1    -0.115697871857E+04    0.11882E-01   -0.84010E+00 12744   0.323E+00    0.137E+00
RMM:   2    -0.115700430505E+04   -0.25586E-01   -0.26892E-01 12291   0.684E-01    0.128E+00
RMM:   3    -0.115700475167E+04   -0.44662E-03   -0.14187E-02 12799   0.207E-01    0.778E-01
RMM:   4    -0.115700387772E+04    0.87394E-03   -0.67992E-03 13198   0.956E-02    0.411E-01
RMM:   5    -0.115700445390E+04   -0.57618E-03   -0.27623E-03 12194   0.655E-02    0.197E-01
RMM:   6    -0.115700476773E+04   -0.31383E-03   -0.36592E-04  9178   0.247E-02    0.126E-01
RMM:   7    -0.115700522343E+04   -0.45570E-03   -0.22863E-04  8420   0.168E-02    0.101E-01
RMM:   8    -0.115700639705E+04   -0.11736E-02   -0.72302E-04  8918   0.294E-02    0.916E-02
RMM:   9    -0.115700718971E+04   -0.79266E-03   -0.54783E-04  8470   0.238E-02    0.830E-02
RMM:  10    -0.115700787450E+04   -0.68479E-03   -0.41554E-04  8253   0.201E-02    0.829E-02
RMM:  11    -0.115700993009E+04   -0.20556E-02   -0.25634E-03  9799   0.546E-02    0.698E-02
RMM:  12    -0.115701331834E+04   -0.33882E-02   -0.11840E-02 11038   0.123E-01    0.626E-02
RMM:  13    -0.115701390976E+04   -0.59143E-03   -0.19552E-03  9794   0.357E-02    0.596E-02
RMM:  14    -0.115701445965E+04   -0.54989E-03   -0.65324E-04  8511   0.251E-02    0.574E-02
RMM:  15    -0.115701471366E+04   -0.25401E-03   -0.25600E-04  7471   0.141E-02    0.555E-02
RMM:  16    -0.115701550476E+04   -0.79110E-03   -0.92613E-04  8592   0.298E-02    0.494E-02
RMM:  17    -0.115701718373E+04   -0.16790E-02   -0.93103E-03 10798   0.105E-01    0.648E-02
RMM:  18    -0.115701757155E+04   -0.38782E-03   -0.10047E-03  8993   0.251E-02    0.363E-02
RMM:  19    -0.115701812434E+04   -0.55279E-03   -0.19410E-03  9429   0.460E-02    0.389E-02
RMM:  20    -0.115701863615E+04   -0.51181E-03   -0.28084E-03  9708   0.535E-02    0.335E-02
RMM:  21    -0.115701892363E+04   -0.28748E-03   -0.13724E-03  8866   0.329E-02    0.239E-02
RMM:  22    -0.115701904804E+04   -0.12441E-03   -0.54271E-04  8031   0.208E-02    0.204E-02
RMM:  23    -0.115701912668E+04   -0.78638E-04   -0.30019E-04  7407   0.158E-02
   2 F= -.11570191E+04 E0= -.11570191E+04  d E =-.285717E-01  mag=    14.0000
       N       E                     dE             d eps       ncg     rms          rms(c)
DAV:   1    -0.115702695251E+04   -0.79045E-02   -0.20204E+00 12776   0.157E+00    0.784E-01
RMM:   2    -0.115703454343E+04   -0.75909E-02   -0.62809E-02 12299   0.328E-01    0.646E-01
RMM:   3    -0.115703494844E+04   -0.40501E-03   -0.32210E-03 12475   0.101E-01    0.370E-01
RMM:   4    -0.115703453343E+04    0.41501E-03   -0.18798E-03 11944   0.488E-02    0.178E-01
RMM:   5    -0.115703443918E+04    0.94246E-04   -0.49988E-04 10518   0.307E-02    0.783E-02
RMM:   6    -0.115703444873E+04   -0.95494E-05   -0.57518E-05  7603   0.105E-02    0.466E-02
RMM:   7    -0.115703446747E+04   -0.18735E-04   -0.31297E-05  7199   0.738E-03    0.328E-02
RMM:   8    -0.115703449990E+04   -0.32429E-04   -0.27524E-05  7017   0.753E-03
   3 F= -.11570345E+04 E0= -.11570345E+04  d E =-.153732E-01  mag=    14.0000
       N       E                     dE             d eps       ncg     rms          rms(c)
DAV:   1    -0.115702283911E+04    0.11628E-01   -0.27472E+00 12608   0.171E+00    0.105E+00
RMM:   2    -0.115703978766E+04   -0.16949E-01   -0.63492E-02 12399   0.329E-01    0.584E-01
RMM:   3    -0.115704227426E+04   -0.24866E-02   -0.40768E-03 12565   0.116E-01    0.254E-01
RMM:   4    -0.115704234065E+04   -0.66386E-04   -0.12408E-03 11938   0.433E-02    0.130E-01
RMM:   5    -0.115704246630E+04   -0.12565E-03   -0.31980E-04  8566   0.240E-02    0.685E-02
RMM:   6    -0.115704254805E+04   -0.81748E-04   -0.97172E-05  7369   0.136E-02    0.415E-02
RMM:   7    -0.115704262003E+04   -0.71977E-04   -0.55966E-05  7161   0.100E-02    0.367E-02
RMM:   8    -0.115704271449E+04   -0.94461E-04   -0.59445E-05  7017   0.910E-03
   4 F= -.11570427E+04 E0= -.11570427E+04  d E =-.821459E-02  mag=    14.0000
       N       E                     dE             d eps       ncg     rms          rms(c)
DAV:   1    -0.115703947103E+04    0.31490E-02   -0.13436E+00 12624   0.127E+00    0.627E-01
RMM:   2    -0.115704607389E+04   -0.66029E-02   -0.33039E-02 12579   0.237E-01    0.361E-01
RMM:   3    -0.115704688026E+04   -0.80637E-03   -0.19502E-03 12800   0.815E-02    0.171E-01
RMM:   4    -0.115704695095E+04   -0.70695E-04   -0.59779E-04 10686   0.314E-02    0.835E-02
RMM:   5    -0.115704708597E+04   -0.13502E-03   -0.26004E-04  7940   0.221E-02    0.557E-02
RMM:   6    -0.115704714648E+04   -0.60507E-04   -0.79194E-05  7208   0.120E-02    0.397E-02
RMM:   7    -0.115704720700E+04   -0.60521E-04   -0.45104E-05  7052   0.923E-03    0.333E-02
RMM:   8    -0.115704735997E+04   -0.15297E-03   -0.99923E-05  7140   0.120E-02    0.327E-02
RMM:   9    -0.115704748341E+04   -0.12345E-03   -0.99813E-05  7052   0.995E-03    0.289E-02
RMM:  10    -0.115704758771E+04   -0.10430E-03   -0.80131E-05  6739   0.827E-03    0.262E-02
RMM:  11    -0.115704775919E+04   -0.17147E-03   -0.17633E-04  7105   0.132E-02    0.232E-02
RMM:  12    -0.115704814092E+04   -0.38173E-03   -0.14439E-03  8898   0.393E-02    0.200E-02
RMM:  13    -0.115704824167E+04   -0.10075E-03   -0.39298E-04  7532   0.171E-02    0.160E-02
RMM:  14    -0.115704832276E+04   -0.81095E-04   -0.23086E-04  7229   0.145E-02
   5 F= -.11570483E+04 E0= -.11570483E+04  d E =-.560827E-02  mag=    14.0000
       N       E                     dE             d eps       ncg     rms          rms(c)
DAV:   1    -0.115704900573E+04   -0.76407E-03   -0.43465E-01 12832   0.756E-01    0.242E-01
RMM:   2    -0.115705028481E+04   -0.12791E-02   -0.11134E-02 12642   0.139E-01    0.164E-01
RMM:   3    -0.115705035201E+04   -0.67193E-04   -0.59775E-04 10416   0.464E-02    0.959E-02
RMM:   4    -0.115705033650E+04    0.15507E-04   -0.15270E-04  7395   0.170E-02    0.507E-02
RMM:   5    -0.115705035789E+04   -0.21392E-04   -0.82033E-05  7161   0.118E-02    0.289E-02
RMM:   6    -0.115705036846E+04   -0.10567E-04   -0.25609E-05  6967   0.838E-03    0.224E-02
RMM:   7    -0.115705037835E+04   -0.98899E-05   -0.15168E-05  6716   0.519E-03    0.150E-02
RMM:   8    -0.115705039474E+04   -0.16388E-04   -0.13269E-05  6512   0.519E-03
   6 F= -.11570504E+04 E0= -.11570504E+04  d E =-.207198E-02  mag=    14.0000
       N       E                     dE             d eps       ncg     rms          rms(c)
DAV:   1    -0.115704981149E+04    0.56686E-03   -0.61012E-01 12784   0.877E-01    0.334E-01
RMM:   2    -0.115705209636E+04   -0.22849E-02   -0.14978E-02 12948   0.157E-01    0.190E-01
RMM:   3    -0.115705228430E+04   -0.18794E-03   -0.78139E-04 10873   0.510E-02    0.978E-02
RMM:   4    -0.115705228244E+04    0.18584E-05   -0.17799E-04  7508   0.189E-02    0.494E-02
RMM:   5    -0.115705231743E+04   -0.34989E-04   -0.99372E-05  7187   0.129E-02    0.265E-02
RMM:   6    -0.115705233421E+04   -0.16778E-04   -0.31665E-05  6974   0.898E-03    0.237E-02
RMM:   7    -0.115705234726E+04   -0.13052E-04   -0.19029E-05  6750   0.596E-03    0.171E-02
RMM:   8    -0.115705237477E+04   -0.27509E-04   -0.20447E-05  6596   0.643E-03
   7 F= -.11570524E+04 E0= -.11570524E+04  d E =-.198003E-02  mag=    14.0000
       N       E                     dE             d eps       ncg     rms          rms(c)
DAV:   1    -0.115705199394E+04    0.35332E-03   -0.66858E-01 12728   0.938E-01    0.265E-01
RMM:   2    -0.115705393565E+04   -0.19417E-02   -0.16544E-02 13049   0.164E-01    0.158E-01
RMM:   3    -0.115705401079E+04   -0.75143E-04   -0.80059E-04 10788   0.519E-02    0.910E-02
RMM:   4    -0.115705400512E+04    0.56768E-05   -0.20116E-04  7554   0.194E-02    0.431E-02
RMM:   5    -0.115705404300E+04   -0.37879E-04   -0.97463E-05  7183   0.130E-02    0.215E-02
RMM:   6    -0.115705406032E+04   -0.17323E-04   -0.32961E-05  6965   0.884E-03    0.188E-02
RMM:   7    -0.115705407696E+04   -0.16639E-04   -0.21793E-05  6764   0.633E-03    0.167E-02
RMM:   8    -0.115705411378E+04   -0.36817E-04   -0.29733E-05  6689   0.727E-03
   8 F= -.11570541E+04 E0= -.11570541E+04  d E =-.173901E-02  mag=    14.0000
       N       E                     dE             d eps       ncg     rms          rms(c)
DAV:   1    -0.115705406794E+04    0.90162E-05   -0.47331E-01 12784   0.794E-01    0.190E-01
RMM:   2    -0.115705528311E+04   -0.12152E-02   -0.11739E-02 12972   0.138E-01    0.119E-01
RMM:   3    -0.115705530481E+04   -0.21702E-04   -0.54849E-04  9644   0.442E-02    0.742E-02
RMM:   4    -0.115705530655E+04   -0.17421E-05   -0.15193E-04  7307   0.168E-02    0.385E-02
RMM:   5    -0.115705533848E+04   -0.31928E-04   -0.72342E-05  7097   0.113E-02    0.225E-02
RMM:   6    -0.115705535204E+04   -0.13561E-04   -0.25676E-05  6903   0.790E-03    0.177E-02
RMM:   7    -0.115705536719E+04   -0.15145E-04   -0.18304E-05  6668   0.577E-03    0.154E-02
RMM:   8    -0.115705539574E+04   -0.28557E-04   -0.22463E-05  6456   0.620E-03
   9 F= -.11570554E+04 E0= -.11570554E+04  d E =-.128197E-02  mag=    14.0000
       N       E                     dE             d eps       ncg     rms          rms(c)
DAV:   1    -0.115705553515E+04   -0.16796E-03   -0.25907E-01 12784   0.586E-01    0.129E-01
RMM:   2    -0.115705617996E+04   -0.64482E-03   -0.64511E-03 12777   0.102E-01    0.822E-02
RMM:   3    -0.115705618762E+04   -0.76578E-05   -0.28562E-04  8203   0.336E-02    0.526E-02
RMM:   4    -0.115705619670E+04   -0.90744E-05   -0.95211E-05  7136   0.132E-02    0.277E-02
RMM:   5    -0.115705622087E+04   -0.24177E-04   -0.43003E-05  6979   0.877E-03    0.197E-02
RMM:   6    -0.115705623052E+04   -0.96444E-05   -0.16917E-05  6732   0.618E-03    0.147E-02
RMM:   7    -0.115705624261E+04   -0.12090E-04   -0.11889E-05  6172   0.484E-03    0.136E-02
RMM:   8    -0.115705625975E+04   -0.17145E-04   -0.12372E-05  5787   0.443E-03
  10 F= -.11570563E+04 E0= -.11570563E+04  d E =-.864010E-03  mag=    14.0000
       N       E                     dE             d eps       ncg     rms          rms(c)
DAV:   1    -0.115705621095E+04    0.31656E-04   -0.33418E-01 12640   0.662E-01    0.146E-01
RMM:   2    -0.115705704455E+04   -0.83360E-03   -0.82177E-03 12994   0.114E-01    0.913E-02
RMM:   3    -0.115705705098E+04   -0.64332E-05   -0.35897E-04  8619   0.364E-02    0.577E-02
RMM:   4    -0.115705705342E+04   -0.24398E-05   -0.10514E-04  7159   0.141E-02    0.294E-02
RMM:   5    -0.115705707555E+04   -0.22131E-04   -0.47853E-05  6978   0.943E-03    0.175E-02
RMM:   6    -0.115705708492E+04   -0.93623E-05   -0.18248E-05  6769   0.651E-03    0.142E-02
RMM:   7    -0.115705709542E+04   -0.10502E-04   -0.12359E-05  6182   0.495E-03    0.126E-02
RMM:   8    -0.115705711683E+04   -0.21415E-04   -0.17335E-05  6103   0.528E-03
  11 F= -.11570571E+04 E0= -.11570571E+04  d E =-.857081E-03  mag=    14.0000
