       N       E                     dE             d eps       ncg     rms          rms(c)
DAV:   1    -0.116310069365E+04   -0.11631E+04   -0.92860E-04 15856   0.142E-01    0.161E-01
RMM:   2    -0.116310071090E+04   -0.17254E-04   -0.92988E-04  9958   0.403E-02    0.181E-01
RMM:   3    -0.116310078473E+04   -0.73828E-04   -0.81619E-05  7171   0.111E-02    0.481E-02
RMM:   4    -0.116310092457E+04   -0.13984E-03   -0.66037E-05  6483   0.784E-03    0.437E-02
RMM:   5    -0.116310099651E+04   -0.71945E-04   -0.24585E-05  5430   0.488E-03    0.443E-02
RMM:   6    -0.116310096371E+04    0.32796E-04   -0.65970E-06  4613   0.385E-03    0.442E-02
RMM:   7    -0.116310092936E+04    0.34359E-04   -0.43861E-06  4356   0.319E-03    0.455E-02
RMM:   8    -0.116310102512E+04   -0.95764E-04   -0.12543E-05  4513   0.478E-03
   1 F= -.11631010E+04 E0= -.11630997E+04  d E =-.116310E+04  mag=     5.9774
       N       E                     dE             d eps       ncg     rms          rms(c)
DAV:   1    -0.116309823796E+04    0.26914E-02   -0.14333E+00 12800   0.126E+00    0.710E-01
RMM:   2    -0.116310561223E+04   -0.73743E-02   -0.38034E-02 12315   0.249E-01    0.464E-01
RMM:   3    -0.116310653453E+04   -0.92230E-03   -0.20887E-03 12236   0.806E-02    0.221E-01
RMM:   4    -0.116310680504E+04   -0.27051E-03   -0.11332E-03 11375   0.404E-02    0.117E-01
RMM:   5    -0.116310717624E+04   -0.37120E-03   -0.49415E-04  9403   0.280E-02    0.719E-02
RMM:   6    -0.116310735779E+04   -0.18156E-03   -0.12513E-04  7567   0.132E-02    0.631E-02
RMM:   7    -0.116310768797E+04   -0.33017E-03   -0.15117E-04  7477   0.125E-02    0.619E-02
RMM:   8    -0.116310805174E+04   -0.36378E-03   -0.17080E-04  7266   0.126E-02    0.594E-02
RMM:   9    -0.116310854844E+04   -0.49670E-03   -0.27985E-04  7696   0.160E-02    0.589E-02
RMM:  10    -0.116310938270E+04   -0.83426E-03   -0.77655E-04  8516   0.274E-02    0.564E-02
RMM:  11    -0.116311211488E+04   -0.27322E-02   -0.12734E-02 11003   0.126E-01    0.649E-02
RMM:  12    -0.116311265918E+04   -0.54430E-03   -0.10344E-03  9303   0.304E-02    0.549E-02
RMM:  13    -0.116311249122E+04    0.16795E-03   -0.83887E-05  7313   0.153E-02    0.569E-02
RMM:  14    -0.116311244351E+04    0.47717E-04   -0.24273E-05  6151   0.606E-03
   2 F= -.11631124E+04 E0= -.11631111E+04  d E =-.114184E-01  mag=     5.9784
       N       E                     dE             d eps       ncg     rms          rms(c)
DAV:   1    -0.116311327215E+04   -0.78093E-03   -0.36830E-01 12432   0.618E-01    0.376E-01
RMM:   2    -0.116311557644E+04   -0.23043E-02   -0.99490E-03 12235   0.126E-01    0.243E-01
RMM:   3    -0.116311599271E+04   -0.41627E-03   -0.58695E-04 10599   0.428E-02    0.126E-01
RMM:   4    -0.116311642803E+04   -0.43533E-03   -0.43360E-04  9415   0.263E-02    0.850E-02
RMM:   5    -0.116311686283E+04   -0.43480E-03   -0.37386E-04  8205   0.196E-02    0.640E-02
RMM:   6    -0.116311709903E+04   -0.23619E-03   -0.14054E-04  7210   0.111E-02    0.621E-02
RMM:   7    -0.116311745868E+04   -0.35965E-03   -0.16014E-04  7031   0.123E-02    0.618E-02
RMM:   8    -0.116311786813E+04   -0.40945E-03   -0.20503E-04  7170   0.133E-02    0.604E-02
RMM:   9    -0.116311849199E+04   -0.62386E-03   -0.41189E-04  7791   0.191E-02    0.590E-02
RMM:  10    -0.116311985092E+04   -0.13589E-02   -0.20374E-03  9527   0.470E-02    0.551E-02
RMM:  11    -0.116312234776E+04   -0.24968E-02   -0.13425E-02 11004   0.129E-01    0.649E-02
RMM:  12    -0.116312313702E+04   -0.78926E-03   -0.14461E-03  9703   0.342E-02    0.553E-02
RMM:  13    -0.116312265733E+04    0.47970E-03   -0.27892E-04  7822   0.228E-02    0.576E-02
RMM:  14    -0.116312152516E+04    0.11322E-02   -0.11001E-03  8737   0.383E-02    0.751E-02
RMM:  15    -0.116311907343E+04    0.24517E-02   -0.45393E-03 10196   0.741E-02    0.952E-02
RMM:  16    -0.116312271986E+04   -0.36464E-02   -0.14049E-02 10972   0.143E-01    0.780E-02
RMM:  17    -0.116312488529E+04   -0.21654E-02   -0.21469E-02 11207   0.161E-01    0.903E-02
RMM:  18    -0.116312692014E+04   -0.20348E-02   -0.40744E-03 10888   0.597E-02    0.651E-02
RMM:  19    -0.116312688731E+04    0.32830E-04   -0.28789E-04  8190   0.254E-02
   3 F= -.11631269E+04 E0= -.11631256E+04  d E =-.144438E-01  mag=     5.9782
       N       E                     dE             d eps       ncg     rms          rms(c)
DAV:   1    -0.116311478552E+04    0.12135E-01   -0.61450E-01 12544   0.719E-01    0.539E-01
RMM:   2    -0.116311932284E+04   -0.45373E-02   -0.13851E-02 12211   0.141E-01    0.292E-01
RMM:   3    -0.116312003206E+04   -0.70922E-03   -0.84885E-04 10541   0.482E-02    0.120E-01
RMM:   4    -0.116312011467E+04   -0.82611E-04   -0.21537E-04  8117   0.182E-02    0.612E-02
RMM:   5    -0.116312019827E+04   -0.83604E-04   -0.11577E-04  7425   0.128E-02    0.294E-02
RMM:   6    -0.116312022262E+04   -0.24349E-04   -0.27522E-05  6837   0.722E-03    0.239E-02
RMM:   7    -0.116312025200E+04   -0.29372E-04   -0.15729E-05  5782   0.459E-03    0.214E-02
RMM:   8    -0.116312032349E+04   -0.71493E-04   -0.40961E-05  6183   0.653E-03
   4 F= -.11631203E+04 E0= -.11631190E+04  d E =0.656382E-02  mag=     5.9784
       N       E                     dE             d eps       ncg     rms          rms(c)
DAV:   1    -0.116311657484E+04    0.36772E-02   -0.16760E+00 12640   0.119E+00    0.916E-01
RMM:   2    -0.116312942396E+04   -0.12849E-01   -0.34360E-02 12264   0.225E-01    0.473E-01
RMM:   3    -0.116313154973E+04   -0.21258E-02   -0.21580E-03 11790   0.798E-02    0.177E-01
RMM:   4    -0.116313178905E+04   -0.23933E-03   -0.58947E-04  9726   0.299E-02    0.100E-01
RMM:   5    -0.116313198853E+04   -0.19948E-03   -0.21298E-04  7757   0.189E-02    0.563E-02
RMM:   6    -0.116313210599E+04   -0.11746E-03   -0.78456E-05  7158   0.106E-02    0.403E-02
RMM:   7    -0.116313223665E+04   -0.13066E-03   -0.62307E-05  6912   0.832E-03    0.390E-02
RMM:   8    -0.116313241887E+04   -0.18222E-03   -0.92143E-05  6851   0.946E-03    0.375E-02
RMM:   9    -0.116313273784E+04   -0.31897E-03   -0.26673E-04  7376   0.157E-02    0.343E-02
RMM:  10    -0.116313320945E+04   -0.47161E-03   -0.73076E-04  8293   0.264E-02    0.315E-02
RMM:  11    -0.116313396627E+04   -0.75681E-03   -0.34062E-03  9872   0.613E-02    0.297E-02
RMM:  12    -0.116313443925E+04   -0.47298E-03   -0.12769E-03  8927   0.318E-02    0.261E-02
RMM:  13    -0.116313455834E+04   -0.11909E-03   -0.19478E-04  7389   0.138E-02    0.251E-02
RMM:  14    -0.116313452750E+04    0.30837E-04   -0.30015E-05  6276   0.874E-03
   5 F= -.11631345E+04 E0= -.11631332E+04  d E =-.142040E-01  mag=     5.9782
       N       E                     dE             d eps       ncg     rms          rms(c)
DAV:   1    -0.116312359326E+04    0.10965E-01   -0.26573E+00 12616   0.151E+00    0.114E+00
RMM:   2    -0.116314321659E+04   -0.19623E-01   -0.55003E-02 12356   0.285E-01    0.602E-01
RMM:   3    -0.116314641781E+04   -0.32012E-02   -0.35374E-03 12173   0.101E-01    0.226E-01
RMM:   4    -0.116314670803E+04   -0.29022E-03   -0.10145E-03 10766   0.391E-02    0.127E-01
RMM:   5    -0.116314695139E+04   -0.24336E-03   -0.31943E-04  8372   0.224E-02    0.720E-02
RMM:   6    -0.116314711360E+04   -0.16221E-03   -0.11367E-04  7351   0.132E-02    0.464E-02
RMM:   7    -0.116314729105E+04   -0.17745E-03   -0.91611E-05  7207   0.106E-02    0.439E-02
RMM:   8    -0.116314751754E+04   -0.22649E-03   -0.12005E-04  7133   0.112E-02    0.415E-02
RMM:   9    -0.116314788431E+04   -0.36677E-03   -0.28921E-04  7603   0.163E-02    0.380E-02
RMM:  10    -0.116314838215E+04   -0.49784E-03   -0.65821E-04  8180   0.247E-02    0.340E-02
RMM:  11    -0.116314918922E+04   -0.80707E-03   -0.29255E-03  9606   0.561E-02    0.295E-02
RMM:  12    -0.116314976182E+04   -0.57260E-03   -0.20153E-03  9073   0.428E-02    0.264E-02
RMM:  13    -0.116314996280E+04   -0.20098E-03   -0.43268E-04  8167   0.183E-02    0.245E-02
RMM:  14    -0.116314994388E+04    0.18922E-04   -0.36298E-05  6632   0.945E-03
   6 F= -.11631499E+04 E0= -.11631487E+04  d E =-.154164E-01  mag=     5.9786
       N       E                     dE             d eps       ncg     rms          rms(c)
DAV:   1    -0.116315057595E+04   -0.61314E-03   -0.44045E-01 12672   0.668E-01    0.394E-01
RMM:   2    -0.116315322151E+04   -0.26456E-02   -0.94712E-03 12473   0.120E-01    0.206E-01
RMM:   3    -0.116315363595E+04   -0.41444E-03   -0.59239E-04  9968   0.436E-02    0.849E-02
RMM:   4    -0.116315374469E+04   -0.10874E-03   -0.18685E-04  7501   0.171E-02    0.478E-02
RMM:   5    -0.116315384602E+04   -0.10133E-03   -0.87635E-05  7155   0.109E-02    0.333E-02
RMM:   6    -0.116315390680E+04   -0.60782E-04   -0.39294E-05  6890   0.756E-03    0.285E-02
RMM:   7    -0.116315396531E+04   -0.58503E-04   -0.28813E-05  6402   0.578E-03    0.261E-02
RMM:   8    -0.116315413309E+04   -0.16779E-03   -0.12799E-04  6912   0.120E-02    0.263E-02
RMM:   9    -0.116315433698E+04   -0.20388E-03   -0.27136E-04  7170   0.156E-02    0.227E-02
RMM:  10    -0.116315450701E+04   -0.17003E-03   -0.26121E-04  6889   0.140E-02    0.208E-02
RMM:  11    -0.116315482861E+04   -0.32161E-03   -0.17922E-03  8935   0.428E-02    0.184E-02
RMM:  12    -0.116315505827E+04   -0.22966E-03   -0.10427E-03  8231   0.291E-02    0.147E-02
RMM:  13    -0.116315514972E+04   -0.91454E-04   -0.21225E-04  7328   0.132E-02
   7 F= -.11631551E+04 E0= -.11631538E+04  d E =-.520584E-02  mag=     5.9780
       N       E                     dE             d eps       ncg     rms          rms(c)
DAV:   1    -0.116315595302E+04   -0.89475E-03   -0.16128E-01 12536   0.417E-01    0.201E-01
RMM:   2    -0.116315671704E+04   -0.76402E-03   -0.35538E-03 12456   0.735E-02    0.107E-01
RMM:   3    -0.116315681406E+04   -0.97023E-04   -0.18593E-04  7589   0.262E-02    0.473E-02
RMM:   4    -0.116315683644E+04   -0.22375E-04   -0.67720E-05  7088   0.103E-02    0.238E-02
RMM:   5    -0.116315686141E+04   -0.24968E-04   -0.30460E-05  6812   0.652E-03    0.150E-02
RMM:   6    -0.116315687507E+04   -0.13660E-04   -0.12483E-05  6143   0.461E-03    0.132E-02
RMM:   7    -0.116315689180E+04   -0.16737E-04   -0.10369E-05  5151   0.400E-03    0.126E-02
RMM:   8    -0.116315692396E+04   -0.32156E-04   -0.24108E-05  5785   0.539E-03
   8 F= -.11631569E+04 E0= -.11631556E+04  d E =-.177424E-02  mag=     5.9782
       N       E                     dE             d eps       ncg     rms          rms(c)
DAV:   1    -0.116315651583E+04    0.37598E-03   -0.74847E-01 12648   0.876E-01    0.486E-01
RMM:   2    -0.116316060744E+04   -0.40916E-02   -0.15960E-02 12605   0.155E-01    0.255E-01
RMM:   3    -0.116316118920E+04   -0.58175E-03   -0.10283E-03 11149   0.552E-02    0.102E-01
RMM:   4    -0.116316123887E+04   -0.49671E-04   -0.23228E-04  7871   0.195E-02    0.529E-02
RMM:   5    -0.116316129436E+04   -0.55488E-04   -0.90420E-05  7220   0.126E-02    0.319E-02
RMM:   6    -0.116316132345E+04   -0.29090E-04   -0.32770E-05  6967   0.826E-03    0.217E-02
RMM:   7    -0.116316135220E+04   -0.28758E-04   -0.21051E-05  6731   0.580E-03    0.193E-02
RMM:   8    -0.116316141601E+04   -0.63804E-04   -0.44981E-05  6688   0.803E-03
   9 F= -.11631614E+04 E0= -.11631601E+04  d E =-.449205E-02  mag=     5.9782
       N       E                     dE             d eps       ncg     rms          rms(c)
DAV:   1    -0.116311110050E+04    0.50252E-01   -0.78362E+00 12640   0.273E+00    0.178E+00
RMM:   2    -0.116316143838E+04   -0.50338E-01   -0.16791E-01 12503   0.509E-01    0.980E-01
RMM:   3    -0.116316913652E+04   -0.76981E-02   -0.10959E-02 12700   0.178E-01    0.365E-01
RMM:   4    -0.116316938807E+04   -0.25155E-03   -0.25891E-03 13014   0.619E-02    0.200E-01
RMM:   5    -0.116316963359E+04   -0.24552E-03   -0.83729E-04 10748   0.308E-02    0.109E-01
RMM:   6    -0.116316979843E+04   -0.16484E-03   -0.20194E-04  7890   0.190E-02    0.474E-02
RMM:   7    -0.116316993002E+04   -0.13159E-03   -0.10446E-04  7319   0.122E-02    0.449E-02
RMM:   8    -0.116317004730E+04   -0.11728E-03   -0.74270E-05  7177   0.106E-02    0.386E-02
RMM:   9    -0.116317030511E+04   -0.25781E-03   -0.18852E-04  7413   0.150E-02    0.351E-02
RMM:  10    -0.116317045723E+04   -0.15212E-03   -0.12102E-04  7124   0.104E-02    0.320E-02
RMM:  11    -0.116317075356E+04   -0.29634E-03   -0.32609E-04  7594   0.184E-02    0.272E-02
RMM:  12    -0.116317123800E+04   -0.48444E-03   -0.16523E-03  8975   0.414E-02    0.229E-02
RMM:  13    -0.116317148019E+04   -0.24218E-03   -0.63514E-04  8053   0.222E-02    0.195E-02
RMM:  14    -0.116317159103E+04   -0.11084E-03   -0.20269E-04  7201   0.132E-02    0.184E-02
RMM:  15    -0.116317168483E+04   -0.93802E-04   -0.15772E-04  6605   0.109E-02
  10 F= -.11631717E+04 E0= -.11631704E+04  d E =-.102688E-01  mag=     5.9778
       N       E                     dE             d eps       ncg     rms          rms(c)
DAV:   1    -0.116316928500E+04    0.23060E-02   -0.95666E-01 12600   0.105E+00    0.437E-01
RMM:   2    -0.116317314486E+04   -0.38599E-02   -0.22574E-02 12503   0.188E-01    0.247E-01
RMM:   3    -0.116317354766E+04   -0.40280E-03   -0.14437E-03 11966   0.680E-02    0.122E-01
RMM:   4    -0.116317353430E+04    0.13363E-04   -0.32547E-04  8602   0.222E-02    0.578E-02
RMM:   5    -0.116317356219E+04   -0.27887E-04   -0.11274E-04  7267   0.146E-02    0.222E-02
RMM:   6    -0.116317357596E+04   -0.13770E-04   -0.32027E-05  6993   0.891E-03    0.161E-02
RMM:   7    -0.116317359226E+04   -0.16306E-04   -0.21984E-05  6835   0.628E-03    0.144E-02
RMM:   8    -0.116317361928E+04   -0.27018E-04   -0.24180E-05  6745   0.644E-03
  11 F= -.11631736E+04 E0= -.11631723E+04  d E =-.193445E-02  mag=     5.9777
       N       E                     dE             d eps       ncg     rms          rms(c)
DAV:   1    -0.116317365974E+04   -0.67480E-04   -0.28129E-01 12720   0.591E-01    0.175E-01
RMM:   2    -0.116317448607E+04   -0.82633E-03   -0.66931E-03 12703   0.102E-01    0.104E-01
RMM:   3    -0.116317453087E+04   -0.44794E-04   -0.32747E-04  8470   0.334E-02    0.583E-02
RMM:   4    -0.116317453954E+04   -0.86747E-05   -0.10312E-04  7195   0.130E-02    0.302E-02
RMM:   5    -0.116317456362E+04   -0.24077E-04   -0.45070E-05  6982   0.877E-03    0.194E-02
RMM:   6    -0.116317457619E+04   -0.12574E-04   -0.18103E-05  6802   0.612E-03    0.145E-02
RMM:   7    -0.116317459039E+04   -0.14197E-04   -0.12531E-05  6311   0.493E-03    0.136E-02
RMM:   8    -0.116317461816E+04   -0.27771E-04   -0.21020E-05  6121   0.550E-03
  12 F= -.11631746E+04 E0= -.11631733E+04  d E =-.998882E-03  mag=     5.9777
       N       E                     dE             d eps       ncg     rms          rms(c)
DAV:   1    -0.116317438026E+04    0.21013E-03   -0.43145E-01 12576   0.724E-01    0.232E-01
RMM:   2    -0.116317577836E+04   -0.13981E-02   -0.10037E-02 12784   0.124E-01    0.129E-01
RMM:   3    -0.116317588072E+04   -0.10236E-03   -0.52753E-04  9500   0.415E-02    0.671E-02
RMM:   4    -0.116317589217E+04   -0.11450E-04   -0.12680E-04  7292   0.149E-02    0.344E-02
RMM:   5    -0.116317592419E+04   -0.32019E-04   -0.62545E-05  7061   0.103E-02    0.177E-02
RMM:   6    -0.116317594070E+04   -0.16504E-04   -0.23100E-05  6858   0.692E-03    0.151E-02
RMM:   7    -0.116317595881E+04   -0.18112E-04   -0.16304E-05  6587   0.542E-03    0.140E-02
RMM:   8    -0.116317600034E+04   -0.41532E-04   -0.37204E-05  6579   0.722E-03
  13 F= -.11631760E+04 E0= -.11631747E+04  d E =-.138218E-02  mag=     5.9776
       N       E                     dE             d eps       ncg     rms          rms(c)
DAV:   1    -0.116317615874E+04   -0.19993E-03   -0.22873E-01 12616   0.533E-01    0.153E-01
RMM:   2    -0.116317685165E+04   -0.69291E-03   -0.54185E-03 12630   0.911E-02    0.878E-02
RMM:   3    -0.116317689244E+04   -0.40793E-04   -0.25638E-04  8036   0.302E-02    0.486E-02
RMM:   4    -0.116317690712E+04   -0.14679E-04   -0.79504E-05  7131   0.114E-02    0.265E-02
RMM:   5    -0.116317693325E+04   -0.26134E-04   -0.39046E-05  6948   0.792E-03    0.161E-02
RMM:   6    -0.116317694653E+04   -0.13275E-04   -0.15898E-05  6674   0.548E-03    0.136E-02
RMM:   7    -0.116317696192E+04   -0.15392E-04   -0.11418E-05  5975   0.458E-03    0.128E-02
RMM:   8    -0.116317699240E+04   -0.30477E-04   -0.23395E-05  5991   0.561E-03
  14 F= -.11631770E+04 E0= -.11631757E+04  d E =-.992058E-03  mag=     5.9775
       N       E                     dE             d eps       ncg     rms          rms(c)
DAV:   1    -0.116317699922E+04   -0.37304E-04   -0.33926E-01 12592   0.655E-01    0.163E-01
RMM:   2    -0.116317792097E+04   -0.92174E-03   -0.80278E-03 12735   0.111E-01    0.951E-02
RMM:   3    -0.116317795742E+04   -0.36457E-04   -0.39118E-04  8833   0.372E-02    0.557E-02
RMM:   4    -0.116317796382E+04   -0.63935E-05   -0.10061E-04  7179   0.133E-02    0.295E-02
RMM:   5    -0.116317798885E+04   -0.25031E-04   -0.49158E-05  6978   0.931E-03    0.151E-02
RMM:   6    -0.116317800199E+04   -0.13145E-04   -0.19184E-05  6789   0.626E-03    0.132E-02
RMM:   7    -0.116317801771E+04   -0.15714E-04   -0.14102E-05  6399   0.516E-03    0.123E-02
RMM:   8    -0.116317804897E+04   -0.31263E-04   -0.27877E-05  6334   0.621E-03
  15 F= -.11631780E+04 E0= -.11631767E+04  d E =-.105657E-02  mag=     5.9775
       N       E                     dE             d eps       ncg     rms          rms(c)
DAV:   1    -0.116317739302E+04    0.62469E-03   -0.62862E-01 12560   0.888E-01    0.241E-01
RMM:   2    -0.116317921326E+04   -0.18202E-02   -0.14889E-02 12748   0.151E-01    0.138E-01
RMM:   3    -0.116317930445E+04   -0.91192E-04   -0.76544E-04 10582   0.501E-02    0.760E-02
RMM:   4    -0.116317930115E+04    0.32997E-05   -0.16259E-04  7422   0.170E-02    0.400E-02
RMM:   5    -0.116317932959E+04   -0.28434E-04   -0.81410E-05  7133   0.119E-02    0.182E-02
RMM:   6    -0.116317934371E+04   -0.14127E-04   -0.27465E-05  6922   0.786E-03    0.148E-02
RMM:   7    -0.116317935918E+04   -0.15469E-04   -0.18269E-05  6716   0.572E-03    0.135E-02
RMM:   8    -0.116317938801E+04   -0.28823E-04   -0.24408E-05  6616   0.633E-03
  16 F= -.11631794E+04 E0= -.11631781E+04  d E =-.133903E-02  mag=     5.9773
       N       E                     dE             d eps       ncg     rms          rms(c)
DAV:   1    -0.116317779020E+04    0.15690E-02   -0.92783E-01 12608   0.108E+00    0.289E-01
RMM:   2    -0.116318044199E+04   -0.26518E-02   -0.21798E-02 12787   0.182E-01    0.165E-01
RMM:   3    -0.116318056959E+04   -0.12760E-03   -0.11271E-03 11592   0.599E-02    0.908E-02
RMM:   4    -0.116318056001E+04    0.95813E-05   -0.23982E-04  7877   0.202E-02    0.469E-02
RMM:   5    -0.116318059703E+04   -0.37023E-04   -0.11366E-04  7244   0.138E-02    0.205E-02
RMM:   6    -0.116318061597E+04   -0.18943E-04   -0.36041E-05  6995   0.912E-03    0.170E-02
RMM:   7    -0.116318063906E+04   -0.23088E-04   -0.26073E-05  6852   0.673E-03    0.156E-02
RMM:   8    -0.116318067649E+04   -0.37429E-04   -0.32299E-05  6741   0.714E-03
  17 F= -.11631807E+04 E0= -.11631793E+04  d E =-.128849E-02  mag=     5.9772
