       N       E                     dE             d eps       ncg     rms          rms(c)
DAV:   1     0.117883375938E+05    0.11788E+05   -0.41809E+05  9256   0.130E+03
DAV:   2     0.609868932824E+03   -0.11178E+05   -0.99860E+04  9224   0.372E+02
DAV:   3    -0.137405554329E+04   -0.19839E+04   -0.19143E+04  9920   0.163E+02
DAV:   4    -0.150431371219E+04   -0.13026E+03   -0.12807E+03 12272   0.429E+01
DAV:   5    -0.151213728626E+04   -0.78236E+01   -0.77959E+01 16632   0.910E+00    0.180E+02
RMM:   6    -0.116771388612E+04    0.34442E+03   -0.15719E+03  9366   0.337E+01    0.953E+01
RMM:   7    -0.115477843399E+04    0.12935E+02   -0.60053E+01  9553   0.969E+00    0.559E+01
RMM:   8    -0.116047480909E+04   -0.56964E+01   -0.29441E+01  9406   0.626E+00    0.161E+01
RMM:   9    -0.116138446162E+04   -0.90965E+00   -0.24557E+00 10942   0.150E+00    0.773E+00
RMM:  10    -0.116251096769E+04   -0.11265E+01   -0.20090E+00  9936   0.123E+00    0.530E+00
RMM:  11    -0.116366292492E+04   -0.11520E+01   -0.10859E+00  9870   0.926E-01    0.251E+00
RMM:  12    -0.116388683847E+04   -0.22391E+00   -0.29764E-01 10889   0.487E-01    0.164E+00
RMM:  13    -0.116396076054E+04   -0.73922E-01   -0.11541E-01 11302   0.295E-01    0.108E+00
RMM:  14    -0.116399304224E+04   -0.32282E-01   -0.55825E-02 10963   0.200E-01    0.353E-01
RMM:  15    -0.116399667130E+04   -0.36291E-02   -0.12803E-02 12268   0.934E-02    0.194E-01
RMM:  16    -0.116399749301E+04   -0.82170E-03   -0.40612E-03 12251   0.465E-02    0.826E-02
RMM:  17    -0.116399764816E+04   -0.15515E-03   -0.11809E-03 10223   0.238E-02    0.405E-02
RMM:  18    -0.116399771830E+04   -0.70141E-04   -0.48356E-04  7745   0.153E-02
   1 F= -.11639977E+04 E0= -.11639977E+04  d E =-.116400E+04  mag=     4.0059
       N       E                     dE             d eps       ncg     rms          rms(c)
DAV:   1    -0.116427095163E+04   -0.27330E+00   -0.13152E+02 10896   0.128E+01    0.389E+00
RMM:   2    -0.116465995874E+04   -0.38901E+00   -0.50640E+00  9216   0.247E+00    0.258E+00
RMM:   3    -0.116463927995E+04    0.20679E-01   -0.28475E-01  9669   0.663E-01    0.150E+00
RMM:   4    -0.116462734063E+04    0.11939E-01   -0.73918E-02 10188   0.256E-01    0.106E+00
RMM:   5    -0.116462497618E+04    0.23644E-02   -0.26759E-02 10191   0.149E-01    0.440E-01
RMM:   6    -0.116462573757E+04   -0.76139E-03   -0.54901E-03 12053   0.662E-02    0.291E-01
RMM:   7    -0.116462655872E+04   -0.82114E-03   -0.30008E-03 11000   0.464E-02    0.128E-01
RMM:   8    -0.116462665060E+04   -0.91888E-04   -0.94504E-04 10009   0.254E-02
   2 F= -.11646267E+04 E0= -.11646160E+04  d E =-.628932E+00  mag=     3.8581
       N       E                     dE             d eps       ncg     rms          rms(c)
DAV:   1    -0.116462817914E+04   -0.16204E-02   -0.97071E+00 10768   0.356E+00    0.124E+00
RMM:   2    -0.116465355824E+04   -0.25379E-01   -0.32104E-01  9216   0.659E-01    0.810E-01
RMM:   3    -0.116465368373E+04   -0.12549E-03   -0.20397E-02  9479   0.171E-01    0.549E-01
RMM:   4    -0.116465468333E+04   -0.99961E-03   -0.93911E-03  9835   0.900E-02    0.352E-01
RMM:   5    -0.116465595029E+04   -0.12670E-02   -0.29583E-03  9688   0.522E-02    0.269E-01
RMM:   6    -0.116465673723E+04   -0.78694E-03   -0.19839E-03  9442   0.379E-02    0.180E-01
RMM:   7    -0.116465751214E+04   -0.77491E-03   -0.10909E-03  8898   0.286E-02    0.142E-01
RMM:   8    -0.116465851438E+04   -0.10022E-02   -0.17315E-03  8708   0.382E-02    0.932E-02
RMM:   9    -0.116465903469E+04   -0.52031E-03   -0.53558E-04  7960   0.226E-02    0.918E-02
RMM:  10    -0.116465947625E+04   -0.44157E-03   -0.40664E-04  7626   0.189E-02    0.845E-02
RMM:  11    -0.116465996905E+04   -0.49279E-03   -0.50509E-04  7838   0.215E-02    0.755E-02
RMM:  12    -0.116466025823E+04   -0.28918E-03   -0.62010E-04  7903   0.226E-02    0.499E-02
RMM:  13    -0.116466027850E+04   -0.20264E-04   -0.92297E-05  6023   0.901E-03
   3 F= -.11646603E+04 E0= -.11646488E+04  d E =-.662560E+00  mag=     3.9330
       N       E                     dE             d eps       ncg     rms          rms(c)
DAV:   1    -0.116463235386E+04    0.27904E-01   -0.15116E+02  9568   0.143E+01    0.380E+00
RMM:   2    -0.116501655403E+04   -0.38420E+00   -0.46294E+00  9216   0.265E+00    0.311E+00
RMM:   3    -0.116499105554E+04    0.25498E-01   -0.20210E-01  9657   0.593E-01    0.188E+00
RMM:   4    -0.116498328552E+04    0.77700E-02   -0.85594E-02 10473   0.281E-01    0.130E+00
RMM:   5    -0.116497613885E+04    0.71467E-02   -0.26974E-02 10182   0.157E-01    0.371E-01
RMM:   6    -0.116497698023E+04   -0.84138E-03   -0.42679E-03 12033   0.588E-02    0.248E-01
RMM:   7    -0.116497737435E+04   -0.39412E-03   -0.17426E-03 11194   0.358E-02    0.135E-01
RMM:   8    -0.116497773611E+04   -0.36176E-03   -0.85246E-04 10046   0.270E-02    0.628E-02
RMM:   9    -0.116497780060E+04   -0.64494E-04   -0.27645E-04  7502   0.137E-02
   4 F= -.11649778E+04 E0= -.11649702E+04  d E =-.317522E+00  mag=     3.9936
       N       E                     dE             d eps       ncg     rms          rms(c)
DAV:   1    -0.116498471989E+04   -0.69838E-02   -0.29494E+00 10384   0.201E+00    0.536E-01
RMM:   2    -0.116499088506E+04   -0.61652E-02   -0.94141E-02  9216   0.371E-01    0.486E-01
RMM:   3    -0.116499023594E+04    0.64912E-03   -0.43807E-03  9478   0.851E-02    0.309E-01
RMM:   4    -0.116498985551E+04    0.38044E-03   -0.17610E-03  8958   0.411E-02    0.211E-01
RMM:   5    -0.116498960154E+04    0.25396E-03   -0.54568E-04  7993   0.224E-02    0.499E-02
RMM:   6    -0.116498959951E+04    0.20284E-05   -0.66977E-05  5865   0.899E-03    0.358E-02
RMM:   7    -0.116498959799E+04    0.15244E-05   -0.23421E-05  5302   0.595E-03    0.191E-02
RMM:   8    -0.116498959951E+04   -0.15181E-05   -0.15772E-05  5107   0.434E-03
   5 F= -.11649896E+04 E0= -.11649817E+04  d E =-.329321E+00  mag=     3.9979
       N       E                     dE             d eps       ncg     rms          rms(c)
DAV:   1    -0.116502714883E+04   -0.37551E-01   -0.37091E+01  9592   0.716E+00    0.212E+00
RMM:   2    -0.116512008811E+04   -0.92939E-01   -0.11989E+00  9216   0.135E+00    0.180E+00
RMM:   3    -0.116511110860E+04    0.89795E-02   -0.50500E-02  9907   0.296E-01    0.115E+00
RMM:   4    -0.116510760328E+04    0.35053E-02   -0.25755E-02 10211   0.157E-01    0.651E-01
RMM:   5    -0.116510477917E+04    0.28241E-02   -0.69920E-03 10151   0.814E-02    0.147E-01
RMM:   6    -0.116510479467E+04   -0.15510E-04   -0.91884E-04 10471   0.265E-02    0.939E-02
RMM:   7    -0.116510480316E+04   -0.84868E-05   -0.32218E-04  7641   0.152E-02    0.558E-02
RMM:   8    -0.116510482153E+04   -0.18370E-04   -0.18580E-04  6707   0.120E-02
   6 F= -.11651048E+04 E0= -.11651017E+04  d E =-.115222E+00  mag=     3.9823
       N       E                     dE             d eps       ncg     rms          rms(c)
DAV:   1    -0.116510492271E+04   -0.11955E-03   -0.57390E-02 10384   0.282E-01    0.836E-02
RMM:   2    -0.116510505025E+04   -0.12754E-03   -0.18716E-03  9141   0.539E-02    0.718E-02
RMM:   3    -0.116510503439E+04    0.15866E-04   -0.58504E-05  5356   0.118E-02    0.467E-02
RMM:   4    -0.116510502833E+04    0.60621E-05   -0.36745E-05  5265   0.701E-03    0.235E-02
RMM:   5    -0.116510502456E+04    0.37639E-05   -0.85108E-06  4532   0.348E-03    0.585E-03
RMM:   6    -0.116510502449E+04    0.70329E-07   -0.31520E-07  2240   0.181E-03    0.349E-03
RMM:   7    -0.116510502450E+04   -0.75524E-08   -0.62052E-08  1706   0.178E-03    0.202E-03
RMM:   8    -0.116510502457E+04   -0.66691E-07   -0.23156E-07  1504   0.187E-03
   7 F= -.11651050E+04 E0= -.11651019E+04  d E =-.115425E+00  mag=     3.9818
       N       E                     dE             d eps       ncg     rms          rms(c)
DAV:   1    -0.116512437933E+04   -0.19355E-01   -0.25506E+01  9536   0.593E+00    0.128E+00
RMM:   2    -0.116518002165E+04   -0.55642E-01   -0.70970E-01  9220   0.103E+00    0.993E-01
RMM:   3    -0.116517587557E+04    0.41461E-02   -0.28082E-02  9848   0.232E-01    0.642E-01
RMM:   4    -0.116517333765E+04    0.25379E-02   -0.10786E-02 10245   0.988E-02    0.358E-01
RMM:   5    -0.116517234058E+04    0.99706E-03   -0.31772E-03 10297   0.509E-02    0.817E-02
RMM:   6    -0.116517233827E+04    0.23110E-05   -0.40131E-04  8128   0.184E-02    0.552E-02
RMM:   7    -0.116517234788E+04   -0.96116E-05   -0.23740E-04  6925   0.135E-02    0.289E-02
RMM:   8    -0.116517235678E+04   -0.88997E-05   -0.12323E-04  6000   0.977E-03
   8 F= -.11651724E+04 E0= -.11651691E+04  d E =-.673322E-01  mag=     3.9755
       N       E                     dE             d eps       ncg     rms          rms(c)
DAV:   1    -0.116516870365E+04    0.36442E-02   -0.52343E+00  9712   0.269E+00    0.576E-01
RMM:   2    -0.116518016315E+04   -0.11459E-01   -0.14578E-01  9221   0.466E-01    0.447E-01
RMM:   3    -0.116517930328E+04    0.85987E-03   -0.58556E-03  9791   0.105E-01    0.289E-01
RMM:   4    -0.116517880104E+04    0.50224E-03   -0.23610E-03  9728   0.451E-02    0.162E-01
RMM:   5    -0.116517859078E+04    0.21025E-03   -0.68235E-04  8788   0.236E-02    0.365E-02
RMM:   6    -0.116517858914E+04    0.16464E-05   -0.83453E-05  5831   0.927E-03    0.243E-02
RMM:   7    -0.116517859193E+04   -0.27914E-05   -0.61596E-05  5558   0.734E-03    0.128E-02
RMM:   8    -0.116517859345E+04   -0.15222E-05   -0.24545E-05  5317   0.545E-03
   9 F= -.11651786E+04 E0= -.11651751E+04  d E =-.735689E-01  mag=     3.9724
       N       E                     dE             d eps       ncg     rms          rms(c)
DAV:   1    -0.116514769312E+04    0.30899E-01   -0.35943E+01  9584   0.687E+00    0.134E+00
RMM:   2    -0.116523088347E+04   -0.83190E-01   -0.97012E-01  9216   0.119E+00    0.120E+00
RMM:   3    -0.116522713649E+04    0.37470E-02   -0.37050E-02  9875   0.261E-01    0.790E-01
RMM:   4    -0.116522516002E+04    0.19765E-02   -0.11928E-02 10299   0.101E-01    0.524E-01
RMM:   5    -0.116522349702E+04    0.16630E-02   -0.48299E-03 10087   0.623E-02    0.969E-02
RMM:   6    -0.116522350038E+04   -0.33612E-05   -0.51307E-04  9206   0.209E-02    0.706E-02
RMM:   7    -0.116522350258E+04   -0.21977E-05   -0.23091E-04  6772   0.128E-02    0.430E-02
RMM:   8    -0.116522351907E+04   -0.16493E-04   -0.15778E-04  5851   0.113E-02
  10 F= -.11652235E+04 E0= -.11652206E+04  d E =-.449256E-01  mag=     3.9851
       N       E                     dE             d eps       ncg     rms          rms(c)
DAV:   1    -0.116522131530E+04    0.21873E-02   -0.18586E+00 10096   0.156E+00    0.300E-01
RMM:   2    -0.116522560932E+04   -0.42940E-02   -0.49919E-02  9217   0.269E-01    0.269E-01
RMM:   3    -0.116522541771E+04    0.19161E-03   -0.19992E-03  9705   0.594E-02    0.179E-01
RMM:   4    -0.116522532094E+04    0.96773E-04   -0.66499E-04  8739   0.238E-02    0.118E-01
RMM:   5    -0.116522523474E+04    0.86198E-04   -0.24350E-04  6919   0.154E-02    0.229E-02
RMM:   6    -0.116522523699E+04   -0.22485E-05   -0.35610E-05  5367   0.713E-03    0.152E-02
RMM:   7    -0.116522523879E+04   -0.18053E-05   -0.23631E-05  5203   0.518E-03    0.110E-02
RMM:   8    -0.116522524043E+04   -0.16367E-05   -0.15843E-05  5050   0.407E-03
  11 F= -.11652252E+04 E0= -.11652223E+04  d E =-.466470E-01  mag=     3.9891
       N       E                     dE             d eps       ncg     rms          rms(c)
DAV:   1    -0.116520239333E+04    0.22845E-01   -0.26306E+01  9504   0.573E+00    0.114E+00
RMM:   2    -0.116526039781E+04   -0.58004E-01   -0.66233E-01  9220   0.949E-01    0.954E-01
RMM:   3    -0.116525757239E+04    0.28254E-02   -0.26708E-02  9478   0.224E-01    0.621E-01
RMM:   4    -0.116525603027E+04    0.15421E-02   -0.93786E-03 10134   0.900E-02    0.388E-01
RMM:   5    -0.116525491832E+04    0.11120E-02   -0.29035E-03  9940   0.468E-02    0.699E-02
RMM:   6    -0.116525492141E+04   -0.30872E-05   -0.27762E-04  7438   0.162E-02    0.524E-02
RMM:   7    -0.116525492112E+04    0.28958E-06   -0.13546E-04  6080   0.109E-02    0.303E-02
RMM:   8    -0.116525492646E+04   -0.53344E-05   -0.10195E-04  5650   0.930E-03
  12 F= -.11652549E+04 E0= -.11652519E+04  d E =-.296860E-01  mag=     3.9861
       N       E                     dE             d eps       ncg     rms          rms(c)
DAV:   1    -0.116525399514E+04    0.92598E-03   -0.92811E-01 10240   0.108E+00    0.213E-01
RMM:   2    -0.116525604314E+04   -0.20480E-02   -0.23400E-02  9186   0.178E-01    0.179E-01
RMM:   3    -0.116525594035E+04    0.10280E-03   -0.98148E-04  8815   0.422E-02    0.117E-01
RMM:   4    -0.116525588499E+04    0.55361E-04   -0.36036E-04  7730   0.176E-02    0.735E-02
RMM:   5    -0.116525584537E+04    0.39619E-04   -0.10140E-04  5943   0.103E-02    0.144E-02
RMM:   6    -0.116525584762E+04   -0.22499E-05   -0.24514E-05  5195   0.542E-03    0.911E-03
RMM:   7    -0.116525584853E+04   -0.91245E-06   -0.14541E-05  4925   0.393E-03    0.760E-03
RMM:   8    -0.116525584892E+04   -0.39292E-06   -0.76724E-06  4353   0.308E-03
  13 F= -.11652558E+04 E0= -.11652527E+04  d E =-.306085E-01  mag=     3.9852
       N       E                     dE             d eps       ncg     rms          rms(c)
DAV:   1    -0.116522245534E+04    0.33393E-01   -0.28072E+01  9552   0.594E+00    0.102E+00
RMM:   2    -0.116528378126E+04   -0.61326E-01   -0.68659E-01  9218   0.969E-01    0.755E-01
RMM:   3    -0.116528167690E+04    0.21044E-02   -0.27575E-02  9348   0.230E-01    0.488E-01
RMM:   4    -0.116528014317E+04    0.15337E-02   -0.86681E-03 10102   0.863E-02    0.291E-01
RMM:   5    -0.116527950170E+04    0.64147E-03   -0.23078E-03 10123   0.418E-02    0.784E-02
RMM:   6    -0.116527953128E+04   -0.29576E-04   -0.28270E-04  7233   0.153E-02    0.501E-02
RMM:   7    -0.116527954201E+04   -0.10734E-04   -0.14369E-04  6242   0.108E-02    0.281E-02
RMM:   8    -0.116527954734E+04   -0.53298E-05   -0.77097E-05  5772   0.821E-03
  14 F= -.11652795E+04 E0= -.11652759E+04  d E =-.236984E-01  mag=     3.9790
       N       E                     dE             d eps       ncg     rms          rms(c)
DAV:   1    -0.116527789151E+04    0.16505E-02   -0.12042E+00  9920   0.123E+00    0.211E-01
RMM:   2    -0.116528053157E+04   -0.26401E-02   -0.29547E-02  9196   0.200E-01    0.157E-01
RMM:   3    -0.116528043399E+04    0.97574E-04   -0.12320E-03  8917   0.479E-02    0.102E-01
RMM:   4    -0.116528036995E+04    0.64047E-04   -0.39553E-04  8060   0.186E-02    0.607E-02
RMM:   5    -0.116528034299E+04    0.26955E-04   -0.98679E-05  5748   0.101E-02    0.169E-02
RMM:   6    -0.116528034638E+04   -0.33865E-05   -0.27535E-05  5263   0.561E-03    0.101E-02
RMM:   7    -0.116528034794E+04   -0.15598E-05   -0.16648E-05  4947   0.420E-03    0.795E-03
RMM:   8    -0.116528034861E+04   -0.67055E-06   -0.91797E-06  4410   0.317E-03
  15 F= -.11652803E+04 E0= -.11652766E+04  d E =-.244997E-01  mag=     3.9770
       N       E                     dE             d eps       ncg     rms          rms(c)
DAV:   1    -0.116526936880E+04    0.10979E-01   -0.10906E+01  9568   0.377E+00    0.667E-01
RMM:   2    -0.116529428670E+04   -0.24918E-01   -0.27912E-01  9217   0.633E-01    0.531E-01
RMM:   3    -0.116529339797E+04    0.88873E-03   -0.10923E-02  9342   0.145E-01    0.347E-01
RMM:   4    -0.116529286376E+04    0.53421E-03   -0.31979E-03  9916   0.531E-02    0.231E-01
RMM:   5    -0.116529250637E+04    0.35739E-03   -0.11910E-03  9205   0.309E-02    0.432E-02
RMM:   6    -0.116529251075E+04   -0.43839E-05   -0.10527E-04  6123   0.110E-02    0.310E-02
RMM:   7    -0.116529251284E+04   -0.20898E-05   -0.57313E-05  5551   0.776E-03    0.180E-02
RMM:   8    -0.116529251637E+04   -0.35299E-05   -0.42531E-05  5463   0.665E-03
  16 F= -.11652925E+04 E0= -.11652891E+04  d E =-.121678E-01  mag=     3.9865
       N       E                     dE             d eps       ncg     rms          rms(c)
DAV:   1    -0.116529129268E+04    0.12202E-02   -0.92345E-01  9872   0.110E+00    0.193E-01
RMM:   2    -0.116529341707E+04   -0.21244E-02   -0.23739E-02  9218   0.184E-01    0.154E-01
RMM:   3    -0.116529333685E+04    0.80216E-04   -0.94759E-04  8686   0.424E-02    0.101E-01
RMM:   4    -0.116529329180E+04    0.45048E-04   -0.27349E-04  7013   0.161E-02    0.683E-02
RMM:   5    -0.116529326251E+04    0.29293E-04   -0.97861E-05  5807   0.104E-02    0.142E-02
RMM:   6    -0.116529326498E+04   -0.24702E-05   -0.24022E-05  5142   0.544E-03    0.887E-03
RMM:   7    -0.116529326609E+04   -0.11078E-05   -0.12109E-05  4791   0.376E-03    0.689E-03
RMM:   8    -0.116529326669E+04   -0.60267E-06   -0.75225E-06  4376   0.304E-03
  17 F= -.11652933E+04 E0= -.11652898E+04  d E =-.129181E-01  mag=     3.9896
       N       E                     dE             d eps       ncg     rms          rms(c)
DAV:   1    -0.116528699266E+04    0.62734E-02   -0.68048E+00  9560   0.295E+00    0.584E-01
RMM:   2    -0.116530167003E+04   -0.14677E-01   -0.16868E-01  9222   0.487E-01    0.415E-01
RMM:   3    -0.116530089567E+04    0.77436E-03   -0.67703E-03  9185   0.116E-01    0.264E-01
RMM:   4    -0.116530045607E+04    0.43960E-03   -0.23961E-03  9710   0.458E-02    0.149E-01
RMM:   5    -0.116530028758E+04    0.16849E-03   -0.61300E-04  8670   0.223E-02    0.404E-02
RMM:   6    -0.116530028936E+04   -0.17733E-05   -0.53426E-05  5564   0.923E-03    0.252E-02
RMM:   7    -0.116530029202E+04   -0.26617E-05   -0.62674E-05  5531   0.710E-03    0.134E-02
RMM:   8    -0.116530029305E+04   -0.10338E-05   -0.23691E-05  5260   0.557E-03
  18 F= -.11653003E+04 E0= -.11652966E+04  d E =-.702636E-02  mag=     3.9913
       N       E                     dE             d eps       ncg     rms          rms(c)
DAV:   1    -0.116530021719E+04    0.74828E-04   -0.87866E-02 10016   0.335E-01    0.656E-02
RMM:   2    -0.116530041443E+04   -0.19723E-03   -0.22571E-03  9088   0.555E-02    0.471E-02
RMM:   3    -0.116530039964E+04    0.14782E-04   -0.78693E-05  5315   0.136E-02    0.301E-02
RMM:   4    -0.116530039497E+04    0.46709E-05   -0.40674E-05  5219   0.689E-03    0.168E-02
RMM:   5    -0.116530039395E+04    0.10237E-05   -0.13877E-05  4690   0.395E-03    0.481E-03
RMM:   6    -0.116530039439E+04   -0.43571E-06   -0.52254E-06  3206   0.269E-03    0.283E-03
RMM:   7    -0.116530039464E+04   -0.25786E-06   -0.28627E-06  2508   0.232E-03    0.183E-03
RMM:   8    -0.116530039478E+04   -0.13692E-06   -0.17127E-06  1814   0.217E-03
  19 F= -.11653004E+04 E0= -.11652967E+04  d E =-.712809E-02  mag=     3.9916
       N       E                     dE             d eps       ncg     rms          rms(c)
DAV:   1    -0.116529322322E+04    0.71714E-02   -0.62338E+00  9552   0.284E+00    0.514E-01
RMM:   2    -0.116530669904E+04   -0.13476E-01   -0.15387E-01  9218   0.469E-01    0.375E-01
RMM:   3    -0.116530613124E+04    0.56780E-03   -0.60570E-03  9186   0.110E-01    0.237E-01
RMM:   4    -0.116530577684E+04    0.35440E-03   -0.20411E-03  9700   0.418E-02    0.149E-01
RMM:   5    -0.116530560018E+04    0.17665E-03   -0.57629E-04  8589   0.218E-02    0.370E-02
RMM:   6    -0.116530560488E+04   -0.46973E-05   -0.52073E-05  5517   0.902E-03    0.270E-02
RMM:   7    -0.116530560944E+04   -0.45601E-05   -0.55840E-05  5482   0.679E-03    0.147E-02
RMM:   8    -0.116530561114E+04   -0.16987E-05   -0.28856E-05  5206   0.551E-03
  20 F= -.11653056E+04 E0= -.11653019E+04  d E =-.521636E-02  mag=     3.9887
       N       E                     dE             d eps       ncg     rms          rms(c)
DAV:   1    -0.116530532191E+04    0.28753E-03   -0.21199E-01  9728   0.524E-01    0.940E-02
RMM:   2    -0.116530578883E+04   -0.46692E-03   -0.53219E-03  9186   0.867E-02    0.695E-02
RMM:   3    -0.116530576399E+04    0.24840E-04   -0.18894E-04  5962   0.205E-02    0.445E-02
RMM:   4    -0.116530575260E+04    0.11392E-04   -0.76412E-05  5320   0.938E-03    0.262E-02
RMM:   5    -0.116530574918E+04    0.34147E-05   -0.27628E-05  5078   0.551E-03    0.761E-03
RMM:   6    -0.116530575009E+04   -0.90680E-06   -0.99521E-06  4637   0.349E-03    0.569E-03
RMM:   7    -0.116530575060E+04   -0.51226E-06   -0.54446E-06  3510   0.273E-03    0.328E-03
RMM:   8    -0.116530575091E+04   -0.30550E-06   -0.29819E-06  2837   0.237E-03
  21 F= -.11653058E+04 E0= -.11653021E+04  d E =-.535613E-02  mag=     3.9878
       N       E                     dE             d eps       ncg     rms          rms(c)
DAV:   1    -0.116529751646E+04    0.82341E-02   -0.54302E+00  9648   0.265E+00    0.464E-01
RMM:   2    -0.116530963396E+04   -0.12117E-01   -0.13466E-01  9228   0.436E-01    0.337E-01
RMM:   3    -0.116530921679E+04    0.41717E-03   -0.52445E-03  9144   0.103E-01    0.215E-01
RMM:   4    -0.116530893129E+04    0.28550E-03   -0.16520E-03  9454   0.378E-02    0.131E-01
RMM:   5    -0.116530880894E+04    0.12235E-03   -0.47082E-04  8470   0.195E-02    0.297E-02
RMM:   6    -0.116530881287E+04   -0.39373E-05   -0.43418E-05  5413   0.850E-03    0.197E-02
RMM:   7    -0.116530881625E+04   -0.33813E-05   -0.52078E-05  5379   0.638E-03    0.114E-02
RMM:   8    -0.116530881772E+04   -0.14710E-05   -0.28273E-05  5121   0.514E-03
  22 F= -.11653088E+04 E0= -.11653053E+04  d E =-.306682E-02  mag=     3.9868
       N       E                     dE             d eps       ncg     rms          rms(c)
DAV:   1    -0.116530881705E+04   -0.79560E-06   -0.10225E-04  6160   0.119E-02    0.484E-03
RMM:   2    -0.116530881837E+04   -0.13219E-05   -0.13955E-05  4810   0.495E-03    0.325E-03
RMM:   3    -0.116530881890E+04   -0.52682E-06   -0.52921E-06  3169   0.260E-03    0.176E-03
RMM:   4    -0.116530881911E+04   -0.20985E-06   -0.27415E-06  2509   0.238E-03    0.154E-03
RMM:   5    -0.116530881919E+04   -0.86933E-07   -0.11532E-06  1244   0.204E-03    0.503E-04
RMM:   6    -0.116530881924E+04   -0.44209E-07   -0.61840E-07  1027   0.198E-03    0.247E-04
RMM:   7    -0.116530881926E+04   -0.23530E-07   -0.33736E-07   881   0.194E-03    0.127E-04
RMM:   8    -0.116530881928E+04   -0.14683E-07   -0.20470E-07   790   0.191E-03
  23 F= -.11653088E+04 E0= -.11653053E+04  d E =-.306837E-02  mag=     3.9867
       N       E                     dE             d eps       ncg     rms          rms(c)
DAV:   1    -0.116530458579E+04    0.42335E-02   -0.30668E+00  9552   0.198E+00    0.334E-01
RMM:   2    -0.116531130058E+04   -0.67148E-02   -0.74290E-02  9224   0.323E-01    0.253E-01
RMM:   3    -0.116531109350E+04    0.20708E-03   -0.29583E-03  9095   0.765E-02    0.159E-01
RMM:   4    -0.116531094910E+04    0.14441E-03   -0.83721E-04  9199   0.272E-02    0.107E-01
RMM:   5    -0.116531087008E+04    0.79012E-04   -0.27876E-04  7385   0.155E-02    0.257E-02
RMM:   6    -0.116531087464E+04   -0.45586E-05   -0.37067E-05  5307   0.722E-03    0.154E-02
RMM:   7    -0.116531087654E+04   -0.18924E-05   -0.27304E-05  5145   0.524E-03    0.104E-02
RMM:   8    -0.116531087771E+04   -0.11772E-05   -0.16833E-05  4808   0.392E-03
  24 F= -.11653109E+04 E0= -.11653074E+04  d E =-.205844E-02  mag=     3.9884
       N       E                     dE             d eps       ncg     rms          rms(c)
DAV:   1    -0.116531084468E+04    0.31858E-04   -0.25267E-02  9952   0.179E-01    0.301E-02
RMM:   2    -0.116531090239E+04   -0.57717E-04   -0.63420E-04  7934   0.296E-02    0.235E-02
RMM:   3    -0.116531090010E+04    0.22947E-05   -0.25572E-05  5058   0.771E-03    0.145E-02
RMM:   4    -0.116531089961E+04    0.49183E-06   -0.10869E-05  4562   0.362E-03    0.102E-02
RMM:   5    -0.116531089907E+04    0.53998E-06   -0.36361E-06  2915   0.242E-03    0.241E-03
RMM:   6    -0.116531089921E+04   -0.14259E-06   -0.16586E-06  1999   0.216E-03    0.144E-03
RMM:   7    -0.116531089927E+04   -0.59983E-07   -0.70197E-07  1263   0.194E-03    0.928E-04
RMM:   8    -0.116531089930E+04   -0.28725E-07   -0.38328E-07  1098   0.189E-03
  25 F= -.11653109E+04 E0= -.11653074E+04  d E =-.208002E-02  mag=     3.9888
       N       E                     dE             d eps       ncg     rms          rms(c)
DAV:   1    -0.116530711586E+04    0.37834E-02   -0.26237E+00  9552   0.183E+00    0.313E-01
RMM:   2    -0.116531288442E+04   -0.57686E-02   -0.63751E-02  9225   0.297E-01    0.237E-01
RMM:   3    -0.116531269776E+04    0.18666E-03   -0.25435E-03  9045   0.711E-02    0.150E-01
RMM:   4    -0.116531256288E+04    0.13488E-03   -0.74483E-04  9066   0.259E-02    0.961E-02
RMM:   5    -0.116531249674E+04    0.66134E-04   -0.21507E-04  6870   0.138E-02    0.232E-02
RMM:   6    -0.116531250098E+04   -0.42378E-05   -0.33929E-05  5294   0.682E-03    0.135E-02
RMM:   7    -0.116531250251E+04   -0.15319E-05   -0.24347E-05  5075   0.497E-03    0.108E-02
RMM:   8    -0.116531250320E+04   -0.68842E-06   -0.15116E-05  4663   0.371E-03
  26 F= -.11653125E+04 E0= -.11653090E+04  d E =-.160390E-02  mag=     3.9885
       N       E                     dE             d eps       ncg     rms          rms(c)
DAV:   1    -0.116531250340E+04   -0.88350E-06   -0.13599E-04  6928   0.134E-02    0.397E-03
RMM:   2    -0.116531250423E+04   -0.83585E-06   -0.91439E-06  4536   0.410E-03    0.257E-03
RMM:   3    -0.116531250439E+04   -0.15128E-06   -0.15898E-06  2087   0.202E-03    0.143E-03
RMM:   4    -0.116531250443E+04   -0.42637E-07   -0.74668E-07  1301   0.191E-03    0.104E-03
RMM:   5    -0.116531250444E+04   -0.86002E-08   -0.33020E-07   818   0.180E-03    0.430E-04
RMM:   6    -0.116531250444E+04   -0.84983E-08   -0.18692E-07   728   0.179E-03    0.158E-04
RMM:   7    -0.116531250445E+04   -0.51805E-08   -0.90798E-08   663   0.177E-03    0.828E-05
RMM:   8    -0.116531250445E+04    0.29104E-10   -0.32774E-08   616   0.177E-03
  27 F= -.11653125E+04 E0= -.11653090E+04  d E =-.160515E-02  mag=     3.9885
       N       E                     dE             d eps       ncg     rms          rms(c)
DAV:   1    -0.116530869641E+04    0.38080E-02   -0.25408E+00  9568   0.181E+00    0.300E-01
RMM:   2    -0.116531425286E+04   -0.55565E-02   -0.61022E-02  9224   0.293E-01    0.207E-01
RMM:   3    -0.116531409185E+04    0.16102E-03   -0.24354E-03  9087   0.700E-02    0.132E-01
RMM:   4    -0.116531395679E+04    0.13506E-03   -0.75922E-04  9015   0.257E-02    0.676E-02
RMM:   5    -0.116531392568E+04    0.31106E-04   -0.15015E-04  6130   0.117E-02    0.243E-02
RMM:   6    -0.116531392993E+04   -0.42455E-05   -0.34204E-05  5288   0.673E-03    0.148E-02
RMM:   7    -0.116531393242E+04   -0.24888E-05   -0.26161E-05  5156   0.512E-03    0.104E-02
RMM:   8    -0.116531393299E+04   -0.56969E-06   -0.11293E-05  4683   0.387E-03
  28 F= -.11653139E+04 E0= -.11653104E+04  d E =-.142854E-02  mag=     3.9868
