       N       E                     dE             d eps       ncg     rms          rms(c)
DAV:   1     0.121094804411E+05    0.12109E+05   -0.42586E+05  6168   0.132E+03
DAV:   2     0.719165590104E+03   -0.11390E+05   -0.10178E+05  6152   0.381E+02
DAV:   3    -0.134689300513E+04   -0.20661E+04   -0.19883E+04  6600   0.168E+02
DAV:   4    -0.148988162057E+04   -0.14299E+03   -0.14053E+03  8112   0.470E+01
DAV:   5    -0.149943884533E+04   -0.95572E+01   -0.95066E+01 11096   0.112E+01    0.183E+02
RMM:   6    -0.116063891241E+04    0.33880E+03   -0.16464E+03  6294   0.363E+01    0.132E+02
RMM:   7    -0.114324463269E+04    0.17394E+02   -0.67169E+01  6400   0.128E+01    0.775E+01
RMM:   8    -0.114688060915E+04   -0.36360E+01   -0.22064E+01  7185   0.519E+00    0.383E+01
RMM:   9    -0.115133052156E+04   -0.44499E+01   -0.72558E+00  6622   0.317E+00    0.116E+01
RMM:  10    -0.115289474983E+04   -0.15642E+01   -0.19124E+00  7131   0.147E+00    0.740E+00
RMM:  11    -0.115374837990E+04   -0.85363E+00   -0.87666E-01  7943   0.830E-01    0.476E+00
RMM:  12    -0.115464028222E+04   -0.89190E+00   -0.67479E-01  6924   0.736E-01    0.267E+00
RMM:  13    -0.115500091708E+04   -0.36063E+00   -0.34229E-01  7168   0.566E-01    0.145E+00
RMM:  14    -0.115508412950E+04   -0.83212E-01   -0.14250E-01  7516   0.349E-01    0.733E-01
RMM:  15    -0.115509880094E+04   -0.14671E-01   -0.48522E-02  7588   0.196E-01    0.431E-01
RMM:  16    -0.115510125891E+04   -0.24580E-02   -0.11853E-02  8720   0.933E-02    0.258E-01
RMM:  17    -0.115510260448E+04   -0.13456E-02   -0.54344E-03  7887   0.565E-02    0.126E-01
RMM:  18    -0.115510305768E+04   -0.45321E-03   -0.20064E-03  6485   0.341E-02    0.801E-02
RMM:  19    -0.115510349046E+04   -0.43277E-03   -0.11832E-03  5431   0.242E-02    0.590E-02
RMM:  20    -0.115510399331E+04   -0.50286E-03   -0.87700E-04  5175   0.223E-02    0.501E-02
RMM:  21    -0.115510453308E+04   -0.53976E-03   -0.79299E-04  5065   0.230E-02    0.480E-02
RMM:  22    -0.115510488558E+04   -0.35250E-03   -0.51523E-04  4880   0.178E-02    0.425E-02
RMM:  23    -0.115510537333E+04   -0.48775E-03   -0.67802E-04  4845   0.225E-02    0.393E-02
RMM:  24    -0.115510630405E+04   -0.93072E-03   -0.55708E-03  5132   0.701E-02    0.336E-02
RMM:  25    -0.115510676825E+04   -0.46420E-03   -0.15981E-03  5008   0.304E-02    0.231E-02
RMM:  26    -0.115510693289E+04   -0.16464E-03   -0.62419E-04  4614   0.215E-02    0.174E-02
RMM:  27    -0.115510703129E+04   -0.98399E-04   -0.42294E-04  4293   0.173E-02
   1 F= -.11551070E+04 E0= -.11551070E+04  d E =-.115511E+04  mag=    14.0001
       N       E                     dE             d eps       ncg     rms          rms(c)
DAV:   1    -0.110631656122E+04    0.48790E+02   -0.19009E+03  6792   0.363E+01    0.409E+01
RMM:   2    -0.116021761172E+04   -0.53901E+02   -0.27177E+02  6845   0.129E+01    0.325E+01
RMM:   3    -0.115565339629E+04    0.45642E+01   -0.13409E+01  6288   0.457E+00    0.208E+01
RMM:   4    -0.115454073147E+04    0.11127E+01   -0.35439E+00  7238   0.156E+00    0.156E+01
RMM:   5    -0.115427918364E+04    0.26155E+00   -0.57526E-01  7442   0.584E-01    0.119E+01
RMM:   6    -0.115412256271E+04    0.15662E+00   -0.47310E-01  6601   0.532E-01    0.398E+00
RMM:   7    -0.115408496482E+04    0.37598E-01   -0.24810E-01  6783   0.376E-01    0.145E+00
RMM:   8    -0.115408697013E+04   -0.20053E-02   -0.31546E-02  7697   0.143E-01    0.916E-01
RMM:   9    -0.115408706212E+04   -0.91983E-04   -0.12486E-02  7283   0.804E-02    0.637E-01
RMM:  10    -0.115408763932E+04   -0.57720E-03   -0.58713E-03  6097   0.691E-02    0.277E-01
RMM:  11    -0.115408785314E+04   -0.21382E-03   -0.20022E-03  6098   0.288E-02    0.134E-01
RMM:  12    -0.115408791278E+04   -0.59641E-04   -0.73034E-04  4381   0.174E-02
   2 F= -.11540879E+04 E0= -.11540879E+04  d E =0.101912E+01  mag=    13.9947
       N       E                     dE             d eps       ncg     rms          rms(c)
DAV:   1    -0.114608349591E+04    0.80044E+01   -0.31895E+02  6704   0.155E+01    0.162E+01
RMM:   2    -0.115588007905E+04   -0.97966E+01   -0.24310E+01  6643   0.487E+00    0.252E+01
RMM:   3    -0.115587072404E+04    0.93550E-02   -0.15342E+00  6297   0.181E+00    0.622E+00
RMM:   4    -0.115578895976E+04    0.81764E-01   -0.67396E-01  6810   0.758E-01    0.426E+00
RMM:   5    -0.115574979874E+04    0.39161E-01   -0.11356E-01  6761   0.297E-01    0.232E+00
RMM:   6    -0.115574259115E+04    0.72076E-02   -0.49877E-02  6471   0.206E-01    0.719E-01
RMM:   7    -0.115574302709E+04   -0.43594E-03   -0.90298E-03  7356   0.849E-02    0.474E-01
RMM:   8    -0.115574290421E+04    0.12288E-03   -0.14644E-03  6706   0.346E-02    0.241E-01
RMM:   9    -0.115574295808E+04   -0.53864E-04   -0.57626E-04  5784   0.232E-02
   3 F= -.11557430E+04 E0= -.11557430E+04  d E =-.165505E+01  mag=    13.9997
       N       E                     dE             d eps       ncg     rms          rms(c)
DAV:   1    -0.115587071089E+04   -0.12781E+00   -0.57517E+01  6752   0.707E+00    0.443E+00
RMM:   2    -0.115612567096E+04   -0.25496E+00   -0.15808E+00  6169   0.143E+00    0.318E+00
RMM:   3    -0.115614921283E+04   -0.23542E-01   -0.82301E-02  6381   0.445E-01    0.167E+00
RMM:   4    -0.115614096983E+04    0.82430E-02   -0.30613E-02  6399   0.178E-01    0.107E+00
RMM:   5    -0.115613926591E+04    0.17039E-02   -0.73354E-03  6190   0.997E-02    0.248E-01
RMM:   6    -0.115613932315E+04   -0.57234E-04   -0.17597E-03  6749   0.349E-02    0.142E-01
RMM:   7    -0.115613927039E+04    0.52761E-04   -0.37692E-04  4634   0.197E-02    0.129E-01
RMM:   8    -0.115613927250E+04   -0.21103E-05   -0.16803E-04  4159   0.163E-02
   4 F= -.11561393E+04 E0= -.11561393E+04  d E =-.396314E+00  mag=    14.0000
       N       E                     dE             d eps       ncg     rms          rms(c)
DAV:   1    -0.115612313370E+04    0.16137E-01   -0.33372E+01  6600   0.487E+00    0.391E+00
RMM:   2    -0.115632653411E+04   -0.20340E+00   -0.82220E-01  6193   0.939E-01    0.257E+00
RMM:   3    -0.115635253498E+04   -0.26001E-01   -0.49560E-02  6301   0.324E-01    0.119E+00
RMM:   4    -0.115634868926E+04    0.38457E-02   -0.14884E-02  6718   0.112E-01    0.847E-01
RMM:   5    -0.115634765521E+04    0.10340E-02   -0.51795E-03  6303   0.639E-02    0.206E-01
RMM:   6    -0.115634769069E+04   -0.35479E-04   -0.79046E-04  5530   0.277E-02    0.134E-01
RMM:   7    -0.115634769356E+04   -0.28697E-05   -0.22778E-04  4237   0.154E-02    0.101E-01
RMM:   8    -0.115634770402E+04   -0.10461E-04   -0.10064E-04  3913   0.134E-02
   5 F= -.11563477E+04 E0= -.11563477E+04  d E =-.208432E+00  mag=    14.0000
       N       E                     dE             d eps       ncg     rms          rms(c)
DAV:   1    -0.115622332428E+04    0.12437E+00   -0.32160E+01  6360   0.535E+00    0.374E+00
RMM:   2    -0.115640118142E+04   -0.17786E+00   -0.83047E-01  6230   0.105E+00    0.251E+00
RMM:   3    -0.115642262943E+04   -0.21448E-01   -0.48368E-02  6540   0.325E-01    0.137E+00
RMM:   4    -0.115641925309E+04    0.33763E-02   -0.16958E-02  6580   0.130E-01    0.604E-01
RMM:   5    -0.115641916177E+04    0.91319E-04   -0.38659E-03  6332   0.628E-02    0.280E-01
RMM:   6    -0.115641915092E+04    0.10855E-04   -0.52174E-04  5174   0.216E-02    0.104E-01
RMM:   7    -0.115641913570E+04    0.15222E-04   -0.20105E-04  4183   0.151E-02    0.816E-02
RMM:   8    -0.115641914437E+04   -0.86770E-05   -0.11346E-04  3828   0.143E-02
   6 F= -.11564191E+04 E0= -.11564191E+04  d E =-.714404E-01  mag=    14.0000
       N       E                     dE             d eps       ncg     rms          rms(c)
DAV:   1    -0.115642876566E+04   -0.96300E-02   -0.74281E+00  6464   0.302E+00    0.746E-01
RMM:   2    -0.115644657241E+04   -0.17807E-01   -0.18597E-01  6206   0.548E-01    0.596E-01
RMM:   3    -0.115644699815E+04   -0.42575E-03   -0.11020E-02  6560   0.175E-01    0.375E-01
RMM:   4    -0.115644632920E+04    0.66895E-03   -0.27358E-03  6715   0.569E-02    0.210E-01
RMM:   5    -0.115644618189E+04    0.14731E-03   -0.98526E-04  5875   0.319E-02    0.673E-02
RMM:   6    -0.115644618209E+04   -0.20079E-06   -0.10035E-04  3885   0.144E-02    0.395E-02
RMM:   7    -0.115644618588E+04   -0.37857E-05   -0.53290E-05  3635   0.896E-03    0.245E-02
RMM:   8    -0.115644619064E+04   -0.47596E-05   -0.35799E-05  3572   0.849E-03
   7 F= -.11564462E+04 E0= -.11564462E+04  d E =-.270463E-01  mag=    14.0000
       N       E                     dE             d eps       ncg     rms          rms(c)
DAV:   1    -0.115643964670E+04    0.65392E-02   -0.14515E+01  6320   0.419E+00    0.103E+00
RMM:   2    -0.115647589630E+04   -0.36250E-01   -0.35198E-01  6242   0.746E-01    0.722E-01
RMM:   3    -0.115647722372E+04   -0.13274E-02   -0.21202E-02  6610   0.233E-01    0.465E-01
RMM:   4    -0.115647630775E+04    0.91597E-03   -0.38881E-03  7569   0.690E-02    0.260E-01
RMM:   5    -0.115647612028E+04    0.18747E-03   -0.16743E-03  6382   0.377E-02    0.793E-02
RMM:   6    -0.115647613480E+04   -0.14523E-04   -0.21498E-04  4406   0.180E-02    0.581E-02
RMM:   7    -0.115647614323E+04   -0.84284E-05   -0.81319E-05  3752   0.105E-02    0.308E-02
RMM:   8    -0.115647614738E+04   -0.41494E-05   -0.72607E-05  3663   0.101E-02
   8 F= -.11564761E+04 E0= -.11564761E+04  d E =-.299567E-01  mag=    14.0000
       N       E                     dE             d eps       ncg     rms          rms(c)
DAV:   1    -0.115647177187E+04    0.43714E-02   -0.97030E+00  6336   0.346E+00    0.750E-01
RMM:   2    -0.115649462459E+04   -0.22853E-01   -0.23149E-01  6299   0.594E-01    0.500E-01
RMM:   3    -0.115649502661E+04   -0.40202E-03   -0.12413E-02  6513   0.192E-01    0.309E-01
RMM:   4    -0.115649446698E+04    0.55963E-03   -0.27408E-03  7401   0.572E-02    0.181E-01
RMM:   5    -0.115649432624E+04    0.14075E-03   -0.11273E-03  6305   0.317E-02    0.528E-02
RMM:   6    -0.115649433589E+04   -0.96535E-05   -0.14361E-04  4005   0.153E-02    0.342E-02
RMM:   7    -0.115649434202E+04   -0.61292E-05   -0.69418E-05  3649   0.993E-03    0.217E-02
RMM:   8    -0.115649434696E+04   -0.49436E-05   -0.56605E-05  3606   0.949E-03
   9 F= -.11564943E+04 E0= -.11564943E+04  d E =-.181996E-01  mag=    14.0000
       N       E                     dE             d eps       ncg     rms          rms(c)
DAV:   1    -0.115648933336E+04    0.50087E-02   -0.89410E+00  6384   0.336E+00    0.626E-01
RMM:   2    -0.115650950684E+04   -0.20173E-01   -0.21388E-01  6293   0.568E-01    0.401E-01
RMM:   3    -0.115650950733E+04   -0.48624E-06   -0.10795E-02  6446   0.183E-01    0.266E-01
RMM:   4    -0.115650904759E+04    0.45974E-03   -0.26078E-03  7329   0.556E-02    0.138E-01
RMM:   5    -0.115650903008E+04    0.17506E-04   -0.73279E-04  6051   0.261E-02    0.425E-02
RMM:   6    -0.115650903806E+04   -0.79790E-05   -0.11443E-04  3848   0.137E-02    0.293E-02
RMM:   7    -0.115650904500E+04   -0.69394E-05   -0.67761E-05  3636   0.999E-03    0.168E-02
RMM:   8    -0.115650904993E+04   -0.49329E-05   -0.56931E-05  3553   0.908E-03
  10 F= -.11565090E+04 E0= -.11565090E+04  d E =-.147030E-01  mag=    14.0000
       N       E                     dE             d eps       ncg     rms          rms(c)
DAV:   1    -0.115650342701E+04    0.56180E-02   -0.72064E+00  6368   0.303E+00    0.539E-01
RMM:   2    -0.115651976731E+04   -0.16340E-01   -0.17366E-01  6278   0.513E-01    0.346E-01
RMM:   3    -0.115651977536E+04   -0.80528E-05   -0.87895E-03  6385   0.168E-01    0.228E-01
RMM:   4    -0.115651943545E+04    0.33992E-03   -0.21700E-03  7230   0.504E-02    0.129E-01
RMM:   5    -0.115651940529E+04    0.30155E-04   -0.60090E-04  5824   0.241E-02    0.351E-02
RMM:   6    -0.115651941297E+04   -0.76800E-05   -0.87819E-05  3750   0.131E-02    0.206E-02
RMM:   7    -0.115651941935E+04   -0.63829E-05   -0.63606E-05  3604   0.985E-03    0.131E-02
RMM:   8    -0.115651942334E+04   -0.39836E-05   -0.51524E-05  3500   0.854E-03
  11 F= -.11565194E+04 E0= -.11565194E+04  d E =-.103734E-01  mag=    14.0000
       N       E                     dE             d eps       ncg     rms          rms(c)
DAV:   1    -0.115651484393E+04    0.45754E-02   -0.52752E+00  6408   0.261E+00    0.478E-01
RMM:   2    -0.115652702616E+04   -0.12182E-01   -0.12688E-01  6294   0.439E-01    0.286E-01
RMM:   3    -0.115652708489E+04   -0.58734E-04   -0.64045E-03  6386   0.144E-01    0.184E-01
RMM:   4    -0.115652684028E+04    0.24461E-03   -0.14823E-03  7019   0.424E-02    0.979E-02
RMM:   5    -0.115652682361E+04    0.16669E-04   -0.44213E-04  5322   0.214E-02    0.292E-02
RMM:   6    -0.115652682890E+04   -0.52944E-05   -0.64322E-05  3641   0.123E-02    0.162E-02
RMM:   7    -0.115652683441E+04   -0.55107E-05   -0.58588E-05  3566   0.915E-03    0.103E-02
RMM:   8    -0.115652683704E+04   -0.26288E-05   -0.37330E-05  3417   0.787E-03
  12 F= -.11565268E+04 E0= -.11565268E+04  d E =-.741370E-02  mag=    14.0000
       N       E                     dE             d eps       ncg     rms          rms(c)
DAV:   1    -0.115652452531E+04    0.23091E-02   -0.30977E+00  6512   0.200E+00    0.388E-01
RMM:   2    -0.115653195126E+04   -0.74260E-02   -0.74751E-02  6305   0.339E-01    0.228E-01
RMM:   3    -0.115653205281E+04   -0.10155E-03   -0.37866E-03  6347   0.111E-01    0.140E-01
RMM:   4    -0.115653191103E+04    0.14178E-03   -0.83778E-04  6428   0.325E-02    0.775E-02
RMM:   5    -0.115653189066E+04    0.20363E-04   -0.26905E-04  4420   0.184E-02    0.274E-02
RMM:   6    -0.115653189613E+04   -0.54664E-05   -0.51695E-05  3568   0.114E-02    0.122E-02
RMM:   7    -0.115653189933E+04   -0.32044E-05   -0.34339E-05  3465   0.781E-03    0.904E-03
RMM:   8    -0.115653190120E+04   -0.18629E-05   -0.22469E-05  3365   0.700E-03
  13 F= -.11565319E+04 E0= -.11565319E+04  d E =-.506416E-02  mag=    14.0000
       N       E                     dE             d eps       ncg     rms          rms(c)
DAV:   1    -0.115653046239E+04    0.14369E-02   -0.19907E+00  6432   0.160E+00    0.366E-01
RMM:   2    -0.115653555419E+04   -0.50918E-02   -0.48342E-02  6368   0.274E-01    0.221E-01
RMM:   3    -0.115653567282E+04   -0.11863E-03   -0.23845E-03  6291   0.871E-02    0.132E-01
RMM:   4    -0.115653558017E+04    0.92645E-04   -0.49189E-04  5385   0.259E-02    0.786E-02
RMM:   5    -0.115653554907E+04    0.31102E-04   -0.23004E-04  4004   0.180E-02    0.364E-02
RMM:   6    -0.115653555270E+04   -0.36241E-05   -0.48313E-05  3549   0.117E-02    0.288E-02
RMM:   7    -0.115653555542E+04   -0.27190E-05   -0.26386E-05  3450   0.689E-03    0.110E-02
RMM:   8    -0.115653555630E+04   -0.88145E-06   -0.15546E-05  3373   0.686E-03
  14 F= -.11565356E+04 E0= -.11565356E+04  d E =-.365510E-02  mag=    14.0000
       N       E                     dE             d eps       ncg     rms          rms(c)
DAV:   1    -0.115652909402E+04    0.64614E-02   -0.48569E+00  6400   0.250E+00    0.451E-01
RMM:   2    -0.115654025276E+04   -0.11159E-01   -0.11659E-01  6299   0.424E-01    0.274E-01
RMM:   3    -0.115654029791E+04   -0.45152E-04   -0.58918E-03  6362   0.137E-01    0.178E-01
RMM:   4    -0.115654007318E+04    0.22472E-03   -0.13137E-03  6893   0.405E-02    0.985E-02
RMM:   5    -0.115654005440E+04    0.18782E-04   -0.38015E-04  4975   0.204E-02    0.272E-02
RMM:   6    -0.115654006102E+04   -0.66219E-05   -0.63643E-05  3608   0.120E-02    0.167E-02
RMM:   7    -0.115654006494E+04   -0.39133E-05   -0.39729E-05  3521   0.864E-03    0.107E-02
RMM:   8    -0.115654006695E+04   -0.20121E-05   -0.29849E-05  3404   0.756E-03
  15 F= -.11565401E+04 E0= -.11565401E+04  d E =-.451065E-02  mag=    14.0000
       N       E                     dE             d eps       ncg     rms          rms(c)
DAV:   1    -0.115653983397E+04    0.23097E-03   -0.92461E-01  6472   0.110E+00    0.218E-01
RMM:   2    -0.115654207958E+04   -0.22456E-02   -0.22820E-02  6453   0.188E-01    0.127E-01
RMM:   3    -0.115654208190E+04   -0.23236E-05   -0.10692E-03  5718   0.574E-02    0.767E-02
RMM:   4    -0.115654202995E+04    0.51951E-04   -0.20928E-04  3866   0.189E-02    0.431E-02
RMM:   5    -0.115654202401E+04    0.59367E-05   -0.84553E-05  3563   0.130E-02    0.224E-02
RMM:   6    -0.115654202766E+04   -0.36456E-05   -0.30804E-05  3473   0.848E-03    0.119E-02
RMM:   7    -0.115654202951E+04   -0.18541E-05   -0.17499E-05  3321   0.586E-03    0.835E-03
RMM:   8    -0.115654203056E+04   -0.10448E-05   -0.10870E-05  3129   0.508E-03
  16 F= -.11565420E+04 E0= -.11565420E+04  d E =-.196361E-02  mag=    14.0000
       N       E                     dE             d eps       ncg     rms          rms(c)
DAV:   1    -0.115654081330E+04    0.12162E-02   -0.13272E+00  6400   0.132E+00    0.263E-01
RMM:   2    -0.115654402344E+04   -0.32101E-02   -0.32016E-02  6365   0.223E-01    0.149E-01
RMM:   3    -0.115654405936E+04   -0.35915E-04   -0.15561E-03  6052   0.709E-02    0.886E-02
RMM:   4    -0.115654399330E+04    0.66059E-04   -0.30878E-04  4342   0.215E-02    0.495E-02
RMM:   5    -0.115654398135E+04    0.11946E-04   -0.10364E-04  3592   0.145E-02    0.210E-02
RMM:   6    -0.115654398605E+04   -0.46976E-05   -0.35398E-05  3496   0.913E-03    0.120E-02
RMM:   7    -0.115654398809E+04   -0.20433E-05   -0.19329E-05  3346   0.635E-03    0.817E-03
RMM:   8    -0.115654398929E+04   -0.11917E-05   -0.12095E-05  3192   0.534E-03
  17 F= -.11565440E+04 E0= -.11565440E+04  d E =-.195873E-02  mag=    14.0000
       N       E                     dE             d eps       ncg     rms          rms(c)
DAV:   1    -0.115654273236E+04    0.12557E-02   -0.12803E+00  6400   0.130E+00    0.249E-01
RMM:   2    -0.115654580422E+04   -0.30719E-02   -0.31104E-02  6359   0.222E-01    0.142E-01
RMM:   3    -0.115654583744E+04   -0.33219E-04   -0.15605E-03  6018   0.701E-02    0.867E-02
RMM:   4    -0.115654577619E+04    0.61257E-04   -0.29666E-04  4280   0.213E-02    0.491E-02
RMM:   5    -0.115654576580E+04    0.10388E-04   -0.10020E-04  3586   0.143E-02    0.225E-02
RMM:   6    -0.115654577059E+04   -0.47941E-05   -0.35889E-05  3506   0.919E-03    0.116E-02
RMM:   7    -0.115654577276E+04   -0.21664E-05   -0.19533E-05  3355   0.642E-03    0.847E-03
RMM:   8    -0.115654577405E+04   -0.12878E-05   -0.12080E-05  3177   0.536E-03
  18 F= -.11565458E+04 E0= -.11565458E+04  d E =-.178476E-02  mag=    14.0000
       N       E                     dE             d eps       ncg     rms          rms(c)
DAV:   1    -0.115654546258E+04    0.31018E-03   -0.55271E-01  6488   0.851E-01    0.168E-01
RMM:   2    -0.115654681082E+04   -0.13482E-02   -0.13523E-02  6352   0.146E-01    0.965E-02
RMM:   3    -0.115654682734E+04   -0.16521E-04   -0.66146E-04  5015   0.460E-02    0.579E-02
RMM:   4    -0.115654680032E+04    0.27022E-04   -0.11863E-04  3601   0.148E-02    0.332E-02
RMM:   5    -0.115654679723E+04    0.30849E-05   -0.54013E-05  3511   0.102E-02    0.166E-02
RMM:   6    -0.115654679990E+04   -0.26657E-05   -0.21067E-05  3404   0.685E-03    0.945E-03
RMM:   7    -0.115654680121E+04   -0.13102E-05   -0.11501E-05  3141   0.484E-03    0.676E-03
RMM:   8    -0.115654680196E+04   -0.75513E-06   -0.68843E-06  2758   0.405E-03
  19 F= -.11565468E+04 E0= -.11565468E+04  d E =-.102792E-02  mag=    14.0000
