       N       E                     dE             d eps       ncg     rms          rms(c)
DAV:   1     0.119103053764E+05    0.11910E+05   -0.42049E+05  6168   0.131E+03
DAV:   2     0.649496487923E+03   -0.11261E+05   -0.10059E+05  6152   0.375E+02
DAV:   3    -0.136325643178E+04   -0.20128E+04   -0.19393E+04  6608   0.165E+02
DAV:   4    -0.149634813863E+04   -0.13309E+03   -0.13081E+03  8120   0.442E+01
DAV:   5    -0.150475746240E+04   -0.84093E+01   -0.83699E+01 11112   0.101E+01    0.182E+02
RMM:   6    -0.116527333030E+04    0.33948E+03   -0.16016E+03  6265   0.348E+01    0.111E+02
RMM:   7    -0.115014635431E+04    0.15127E+02   -0.70243E+01  6400   0.107E+01    0.718E+01
RMM:   8    -0.115406186168E+04   -0.39155E+01   -0.27166E+01  6560   0.604E+00    0.505E+01
RMM:   9    -0.116548781807E+04   -0.11426E+02   -0.13726E+01  6915   0.384E+00    0.465E+01
RMM:  10    -0.115632278653E+04    0.91650E+01   -0.10926E+01  6334   0.435E+00    0.153E+01
RMM:  11    -0.115734145488E+04   -0.10187E+01   -0.27454E+00  6720   0.165E+00    0.118E+01
RMM:  12    -0.115810075505E+04   -0.75930E+00   -0.13795E+00  6943   0.118E+00    0.921E+00
RMM:  13    -0.115892950993E+04   -0.82875E+00   -0.12353E+00  6773   0.110E+00    0.886E+00
RMM:  14    -0.115963584304E+04   -0.70633E+00   -0.31668E-01  6953   0.611E-01    0.787E+00
RMM:  15    -0.116029533710E+04   -0.65949E+00   -0.44766E-01  6738   0.676E-01    0.494E+00
RMM:  16    -0.116061266244E+04   -0.31733E+00   -0.42978E-01  6625   0.658E-01    0.240E+00
RMM:  17    -0.116081441612E+04   -0.20175E+00   -0.22152E-01  6792   0.459E-01    0.139E+00
RMM:  18    -0.116087641541E+04   -0.61999E-01   -0.59341E-02  6775   0.243E-01    0.961E-01
RMM:  19    -0.116091083705E+04   -0.34422E-01   -0.32535E-02  6805   0.174E-01    0.648E-01
RMM:  20    -0.116092879089E+04   -0.17954E-01   -0.19097E-02  6816   0.131E-01    0.445E-01
RMM:  21    -0.116093923921E+04   -0.10448E-01   -0.14816E-02  6779   0.118E-01    0.271E-01
RMM:  22    -0.116094380918E+04   -0.45700E-02   -0.56427E-03  6298   0.746E-02    0.202E-01
RMM:  23    -0.116094717314E+04   -0.33640E-02   -0.39715E-03  6114   0.632E-02    0.152E-01
RMM:  24    -0.116094943102E+04   -0.22579E-02   -0.31559E-03  5719   0.521E-02    0.108E-01
RMM:  25    -0.116095100991E+04   -0.15789E-02   -0.25752E-03  5406   0.477E-02    0.826E-02
RMM:  26    -0.116095201405E+04   -0.10041E-02   -0.22240E-03  5281   0.428E-02    0.519E-02
RMM:  27    -0.116095240150E+04   -0.38745E-03   -0.92825E-04  4774   0.252E-02    0.431E-02
RMM:  28    -0.116095274713E+04   -0.34563E-03   -0.75927E-04  4569   0.228E-02    0.334E-02
RMM:  29    -0.116095298257E+04   -0.23544E-03   -0.48820E-04  4288   0.168E-02    0.296E-02
RMM:  30    -0.116095317494E+04   -0.19237E-03   -0.35666E-04  4089   0.136E-02    0.275E-02
RMM:  31    -0.116095339255E+04   -0.21760E-03   -0.53433E-04  4136   0.163E-02    0.223E-02
RMM:  32    -0.116095364590E+04   -0.25336E-03   -0.12760E-03  4356   0.249E-02    0.180E-02
RMM:  33    -0.116095377705E+04   -0.13115E-03   -0.87646E-04  4088   0.194E-02    0.139E-02
RMM:  34    -0.116095384313E+04   -0.66081E-04   -0.45516E-04  3980   0.141E-02
   1 F= -.11609538E+04 E0= -.11609508E+04  d E =-.116095E+04  mag=     5.9884
       N       E                     dE             d eps       ncg     rms          rms(c)
DAV:   1    -0.114782762901E+04    0.13126E+02   -0.12965E+03  6256   0.363E+01    0.215E+01
RMM:   2    -0.116222802052E+04   -0.14400E+02   -0.16526E+02  6156   0.105E+01    0.133E+01
RMM:   3    -0.115910820332E+04    0.31198E+01   -0.60636E+00  6345   0.335E+00    0.911E+00
RMM:   4    -0.115905501541E+04    0.53188E-01   -0.38466E+00  7090   0.109E+00    0.701E+00
RMM:   5    -0.115881510466E+04    0.23991E+00   -0.42700E-01  6619   0.532E-01    0.306E+00
RMM:   6    -0.115877801327E+04    0.37091E-01   -0.26787E-01  7275   0.347E-01    0.133E+00
RMM:   7    -0.115877725894E+04    0.75434E-03   -0.12538E-01  7320   0.213E-01    0.104E+00
RMM:   8    -0.115876907349E+04    0.81854E-02   -0.19647E-02  7329   0.985E-02    0.423E-01
RMM:   9    -0.115876983975E+04   -0.76626E-03   -0.40070E-03  7060   0.533E-02    0.145E-01
RMM:  10    -0.115877000757E+04   -0.16782E-03   -0.12331E-03  6130   0.279E-02    0.701E-02
RMM:  11    -0.115877011858E+04   -0.11101E-03   -0.49217E-04  4873   0.177E-02    0.445E-02
RMM:  12    -0.115877021451E+04   -0.95930E-04   -0.25943E-04  4565   0.138E-02
   2 F= -.11587702E+04 E0= -.11587700E+04  d E =0.218363E+01  mag=     5.9951
       N       E                     dE             d eps       ncg     rms          rms(c)
DAV:   1    -0.116096828858E+04   -0.21982E+01   -0.26983E+02  6400   0.141E+01    0.116E+01
RMM:   2    -0.116153643540E+04   -0.56815E+00   -0.10748E+01  6151   0.369E+00    0.108E+01
RMM:   3    -0.116139850529E+04    0.13793E+00   -0.73772E-01  6636   0.988E-01    0.697E+00
RMM:   4    -0.116140795397E+04   -0.94487E-02   -0.81520E-01  6394   0.832E-01    0.361E+00
RMM:   5    -0.116128313196E+04    0.12482E+00   -0.16837E-01  6696   0.367E-01    0.863E-01
RMM:   6    -0.116127936781E+04    0.37642E-02   -0.20811E-02  6972   0.141E-01    0.575E-01
RMM:   7    -0.116127845759E+04    0.91022E-03   -0.57620E-03  6893   0.709E-02    0.198E-01
RMM:   8    -0.116127843796E+04    0.19627E-04   -0.19700E-03  7088   0.389E-02    0.608E-02
RMM:   9    -0.116127842893E+04    0.90329E-05   -0.29546E-04  4898   0.166E-02
   3 F= -.11612784E+04 E0= -.11612769E+04  d E =-.250821E+01  mag=     5.9926
       N       E                     dE             d eps       ncg     rms          rms(c)
DAV:   1    -0.116163571400E+04   -0.35728E+00   -0.13849E+02  6392   0.124E+01    0.419E+00
RMM:   2    -0.116200909000E+04   -0.37338E+00   -0.47284E+00  6152   0.236E+00    0.514E+00
RMM:   3    -0.116195675045E+04    0.52340E-01   -0.17785E-01  6787   0.577E-01    0.394E+00
RMM:   4    -0.116194151156E+04    0.15239E-01   -0.98771E-02  6539   0.303E-01    0.185E+00
RMM:   5    -0.116192314056E+04    0.18371E-01   -0.34591E-02  6260   0.183E-01    0.401E-01
RMM:   6    -0.116192191758E+04    0.12230E-02   -0.37974E-03  6122   0.656E-02    0.262E-01
RMM:   7    -0.116192143562E+04    0.48196E-03   -0.13625E-03  5820   0.303E-02    0.132E-01
RMM:   8    -0.116192136167E+04    0.73954E-04   -0.49329E-04  5106   0.235E-02
   4 F= -.11619214E+04 E0= -.11619211E+04  d E =-.642933E+00  mag=     5.9982
       N       E                     dE             d eps       ncg     rms          rms(c)
DAV:   1    -0.116218008793E+04   -0.25865E+00   -0.34697E+01  6416   0.567E+00    0.224E+00
RMM:   2    -0.116224536878E+04   -0.65281E-01   -0.93923E-01  6156   0.106E+00    0.163E+00
RMM:   3    -0.116223768139E+04    0.76874E-02   -0.61524E-02  6351   0.337E-01    0.888E-01
RMM:   4    -0.116223240235E+04    0.52790E-02   -0.23725E-02  6470   0.149E-01    0.415E-01
RMM:   5    -0.116223094512E+04    0.14572E-02   -0.44498E-03  6378   0.777E-02    0.186E-01
RMM:   6    -0.116223096657E+04   -0.21447E-04   -0.83112E-04  6305   0.241E-02    0.126E-01
RMM:   7    -0.116223100261E+04   -0.36042E-04   -0.30430E-04  4849   0.176E-02    0.479E-02
RMM:   8    -0.116223100918E+04   -0.65669E-05   -0.10256E-04  4117   0.116E-02
   5 F= -.11622310E+04 E0= -.11622310E+04  d E =-.309648E+00  mag=     5.9998
       N       E                     dE             d eps       ncg     rms          rms(c)
DAV:   1    -0.116232839569E+04   -0.97393E-01   -0.29469E+01  6416   0.561E+00    0.203E+00
RMM:   2    -0.116239317716E+04   -0.64781E-01   -0.86208E-01  6151   0.107E+00    0.177E+00
RMM:   3    -0.116238756526E+04    0.56119E-02   -0.51591E-02  6603   0.338E-01    0.113E+00
RMM:   4    -0.116238417936E+04    0.33859E-02   -0.21553E-02  6499   0.149E-01    0.532E-01
RMM:   5    -0.116238261846E+04    0.15609E-02   -0.43220E-03  6539   0.737E-02    0.166E-01
RMM:   6    -0.116238263905E+04   -0.20597E-04   -0.72668E-04  5972   0.239E-02    0.926E-02
RMM:   7    -0.116238265353E+04   -0.14477E-04   -0.23457E-04  4586   0.152E-02    0.484E-02
RMM:   8    -0.116238266721E+04   -0.13683E-04   -0.11139E-04  4037   0.118E-02
   6 F= -.11623827E+04 E0= -.11623827E+04  d E =-.151658E+00  mag=     6.0000
       N       E                     dE             d eps       ncg     rms          rms(c)
DAV:   1    -0.116237170596E+04    0.10948E-01   -0.29390E+01  6368   0.592E+00    0.190E+00
RMM:   2    -0.116243982747E+04   -0.68122E-01   -0.86155E-01  6155   0.111E+00    0.180E+00
RMM:   3    -0.116243491632E+04    0.49111E-02   -0.46323E-02  6674   0.348E-01    0.127E+00
RMM:   4    -0.116243228393E+04    0.26324E-02   -0.20385E-02  6767   0.146E-01    0.657E-01
RMM:   5    -0.116243055937E+04    0.17246E-02   -0.50280E-03  6956   0.749E-02    0.169E-01
RMM:   6    -0.116243051418E+04    0.45189E-04   -0.80438E-04  6298   0.269E-02    0.103E-01
RMM:   7    -0.116243052339E+04   -0.92077E-05   -0.29385E-04  4781   0.170E-02    0.511E-02
RMM:   8    -0.116243053987E+04   -0.16475E-04   -0.12525E-04  4020   0.131E-02
   7 F= -.11624305E+04 E0= -.11624305E+04  d E =-.478727E-01  mag=     6.0000
       N       E                     dE             d eps       ncg     rms          rms(c)
DAV:   1    -0.116244810721E+04   -0.17584E-01   -0.76430E+00  6496   0.312E+00    0.704E-01
RMM:   2    -0.116246494636E+04   -0.16839E-01   -0.20535E-01  6169   0.549E-01    0.683E-01
RMM:   3    -0.116246430097E+04    0.64539E-03   -0.10017E-02  6386   0.175E-01    0.484E-01
RMM:   4    -0.116246381056E+04    0.49042E-03   -0.39485E-03  6838   0.649E-02    0.293E-01
RMM:   5    -0.116246337275E+04    0.43780E-03   -0.12746E-03  6060   0.350E-02    0.643E-02
RMM:   6    -0.116246336671E+04    0.60411E-05   -0.12325E-04  4009   0.155E-02    0.396E-02
RMM:   7    -0.116246336678E+04   -0.65891E-07   -0.69686E-05  3727   0.101E-02    0.221E-02
RMM:   8    -0.116246336978E+04   -0.30033E-05   -0.41155E-05  3593   0.880E-03
   8 F= -.11624634E+04 E0= -.11624634E+04  d E =-.328299E-01  mag=     6.0000
       N       E                     dE             d eps       ncg     rms          rms(c)
DAV:   1    -0.116246540755E+04   -0.20408E-02   -0.10621E+01  6440   0.370E+00    0.642E-01
RMM:   2    -0.116248818968E+04   -0.22782E-01   -0.25627E-01  6221   0.614E-01    0.472E-01
RMM:   3    -0.116248792500E+04    0.26469E-03   -0.12654E-02  6301   0.209E-01    0.322E-01
RMM:   4    -0.116248742613E+04    0.49887E-03   -0.38168E-03  7574   0.671E-02    0.224E-01
RMM:   5    -0.116248724980E+04    0.17634E-03   -0.87671E-04  6366   0.277E-02    0.601E-02
RMM:   6    -0.116248725684E+04   -0.70438E-05   -0.18853E-04  4237   0.166E-02    0.289E-02
RMM:   7    -0.116248726366E+04   -0.68160E-05   -0.85123E-05  3752   0.116E-02    0.239E-02
RMM:   8    -0.116248726876E+04   -0.51074E-05   -0.57758E-05  3633   0.955E-03
   9 F= -.11624873E+04 E0= -.11624873E+04  d E =-.238990E-01  mag=     6.0000
       N       E                     dE             d eps       ncg     rms          rms(c)
DAV:   1    -0.116248675758E+04    0.50608E-03   -0.87689E+00  6400   0.336E+00    0.572E-01
RMM:   2    -0.116250587216E+04   -0.19115E-01   -0.21135E-01  6268   0.555E-01    0.378E-01
RMM:   3    -0.116250560426E+04    0.26790E-03   -0.10367E-02  6354   0.187E-01    0.254E-01
RMM:   4    -0.116250516955E+04    0.43471E-03   -0.31228E-03  7471   0.600E-02    0.139E-01
RMM:   5    -0.116250512094E+04    0.48611E-04   -0.58853E-04  5986   0.239E-02    0.365E-02
RMM:   6    -0.116250513332E+04   -0.12384E-04   -0.12151E-04  4004   0.140E-02    0.209E-02
RMM:   7    -0.116250514143E+04   -0.81105E-05   -0.82638E-05  3750   0.107E-02    0.165E-02
RMM:   8    -0.116250514594E+04   -0.45089E-05   -0.48579E-05  3575   0.872E-03
  10 F= -.11625051E+04 E0= -.11625051E+04  d E =-.178772E-01  mag=     6.0000
       N       E                     dE             d eps       ncg     rms          rms(c)
DAV:   1    -0.116250224233E+04    0.28991E-02   -0.80599E+00  6400   0.321E+00    0.545E-01
RMM:   2    -0.116251990725E+04   -0.17665E-01   -0.19259E-01  6234   0.528E-01    0.377E-01
RMM:   3    -0.116251969865E+04    0.20860E-03   -0.95042E-03  6283   0.178E-01    0.249E-01
RMM:   4    -0.116251934235E+04    0.35630E-03   -0.26479E-03  7435   0.555E-02    0.155E-01
RMM:   5    -0.116251924830E+04    0.94050E-04   -0.69664E-04  6093   0.249E-02    0.338E-02
RMM:   6    -0.116251925659E+04   -0.82980E-05   -0.98395E-05  3914   0.144E-02    0.189E-02
RMM:   7    -0.116251926396E+04   -0.73708E-05   -0.78831E-05  3724   0.970E-03    0.113E-02
RMM:   8    -0.116251926797E+04   -0.40093E-05   -0.45091E-05  3560   0.876E-03
  11 F= -.11625193E+04 E0= -.11625193E+04  d E =-.141220E-01  mag=     6.0000
       N       E                     dE             d eps       ncg     rms          rms(c)
DAV:   1    -0.116252132941E+04   -0.20654E-02   -0.61280E-01  6560   0.884E-01    0.152E-01
RMM:   2    -0.116252271431E+04   -0.13849E-02   -0.14967E-02  6291   0.147E-01    0.101E-01
RMM:   3    -0.116252268700E+04    0.27313E-04   -0.70347E-04  5199   0.470E-02    0.673E-02
RMM:   4    -0.116252265443E+04    0.32562E-04   -0.18890E-04  3933   0.166E-02    0.375E-02
RMM:   5    -0.116252265446E+04   -0.29744E-07   -0.55344E-05  3524   0.110E-02    0.128E-02
RMM:   6    -0.116252265723E+04   -0.27646E-05   -0.22487E-05  3440   0.713E-03    0.842E-03
RMM:   7    -0.116252265884E+04   -0.16144E-05   -0.14938E-05  3291   0.562E-03    0.609E-03
RMM:   8    -0.116252266005E+04   -0.12090E-05   -0.10466E-05  3090   0.453E-03
  12 F= -.11625227E+04 E0= -.11625227E+04  d E =-.339208E-02  mag=     6.0000
       N       E                     dE             d eps       ncg     rms          rms(c)
DAV:   1    -0.116252399248E+04   -0.13336E-02   -0.25753E-01  6368   0.575E-01    0.106E-01
RMM:   2    -0.116252454738E+04   -0.55490E-03   -0.63063E-03  6206   0.966E-02    0.754E-02
RMM:   3    -0.116252453026E+04    0.17118E-04   -0.28223E-04  4139   0.323E-02    0.507E-02
RMM:   4    -0.116252451556E+04    0.14698E-04   -0.93884E-05  3575   0.124E-02    0.346E-02
RMM:   5    -0.116252451434E+04    0.12244E-05   -0.26349E-05  3457   0.801E-03    0.122E-02
RMM:   6    -0.116252451576E+04   -0.14191E-05   -0.13187E-05  3314   0.513E-03    0.933E-03
RMM:   7    -0.116252451649E+04   -0.72915E-06   -0.69962E-06  2912   0.444E-03    0.601E-03
RMM:   8    -0.116252451709E+04   -0.60054E-06   -0.45189E-06  2377   0.301E-03
  13 F= -.11625245E+04 E0= -.11625245E+04  d E =-.185704E-02  mag=     6.0000
       N       E                     dE             d eps       ncg     rms          rms(c)
DAV:   1    -0.116252441015E+04    0.10634E-03   -0.26820E-03  6272   0.586E-02    0.149E-02
RMM:   2    -0.116252441500E+04   -0.48516E-05   -0.66018E-05  3362   0.113E-02    0.123E-02
RMM:   3    -0.116252441567E+04   -0.67346E-06   -0.73027E-06  2941   0.497E-03    0.741E-03
RMM:   4    -0.116252441544E+04    0.23306E-06   -0.17596E-06  1982   0.251E-03    0.522E-03
RMM:   5    -0.116252441537E+04    0.70853E-07   -0.80465E-07  1508   0.222E-03    0.200E-03
RMM:   6    -0.116252441543E+04   -0.64043E-07   -0.21403E-07   848   0.188E-03    0.115E-03
RMM:   7    -0.116252441548E+04   -0.47890E-07   -0.86618E-08   713   0.185E-03    0.830E-04
RMM:   8    -0.116252441556E+04   -0.78289E-07   -0.13638E-07   696   0.187E-03
  14 F= -.11625244E+04 E0= -.11625244E+04  d E =0.101528E-03  mag=     6.0000
       N       E                     dE             d eps       ncg     rms          rms(c)
DAV:   1    -0.116252205988E+04    0.23556E-02   -0.28132E-01  6320   0.607E-01    0.123E-01
RMM:   2    -0.116252260951E+04   -0.54963E-03   -0.71510E-03  6109   0.104E-01    0.104E-01
RMM:   3    -0.116252258059E+04    0.28917E-04   -0.32566E-04  4370   0.356E-02    0.693E-02
RMM:   4    -0.116252255279E+04    0.27806E-04   -0.11842E-04  3657   0.135E-02    0.404E-02
RMM:   5    -0.116252254539E+04    0.74003E-05   -0.37871E-05  3479   0.893E-03    0.927E-03
RMM:   6    -0.116252254655E+04   -0.11578E-05   -0.11840E-05  3328   0.529E-03    0.781E-03
RMM:   7    -0.116252254709E+04   -0.54853E-06   -0.55129E-06  2746   0.360E-03    0.547E-03
RMM:   8    -0.116252254753E+04   -0.43944E-06   -0.35970E-06  2565   0.293E-03
  15 F= -.11625225E+04 E0= -.11625225E+04  d E =0.186802E-02  mag=     6.0000
       N       E                     dE             d eps       ncg     rms          rms(c)
DAV:   1    -0.116252207930E+04    0.46780E-03   -0.89190E-02  6160   0.343E-01    0.884E-02
RMM:   2    -0.116252221267E+04   -0.13337E-03   -0.27079E-03  6088   0.668E-02    0.906E-02
RMM:   3    -0.116252218776E+04    0.24904E-04   -0.11227E-04  3675   0.216E-02    0.624E-02
RMM:   4    -0.116252216390E+04    0.23861E-04   -0.72072E-05  3564   0.104E-02    0.408E-02
RMM:   5    -0.116252215705E+04    0.68528E-05   -0.25018E-05  3413   0.713E-03    0.168E-02
RMM:   6    -0.116252215733E+04   -0.27692E-06   -0.89498E-06  3076   0.439E-03    0.112E-02
RMM:   7    -0.116252215761E+04   -0.28791E-06   -0.39382E-06  2554   0.338E-03    0.763E-03
RMM:   8    -0.116252215782E+04   -0.20143E-06   -0.22259E-06  2030   0.245E-03
  16 F= -.11625222E+04 E0= -.11625222E+04  d E =0.389718E-03  mag=     6.0000
       N       E                     dE             d eps       ncg     rms          rms(c)
DAV:   1    -0.116252169316E+04    0.46445E-03   -0.35533E-02  6136   0.219E-01    0.483E-02
RMM:   2    -0.116252177253E+04   -0.79362E-04   -0.89604E-04  5847   0.380E-02    0.346E-02
RMM:   3    -0.116252177218E+04    0.34408E-06   -0.42940E-05  3397   0.142E-02    0.219E-02
RMM:   4    -0.116252177077E+04    0.14164E-05   -0.17110E-05  3286   0.522E-03    0.128E-02
RMM:   5    -0.116252177072E+04    0.45751E-07   -0.44574E-06  2659   0.337E-03    0.467E-03
RMM:   6    -0.116252177094E+04   -0.22384E-06   -0.16197E-06  1702   0.237E-03    0.207E-03
RMM:   7    -0.116252177103E+04   -0.85187E-07   -0.66936E-07  1268   0.217E-03    0.112E-03
RMM:   8    -0.116252177108E+04   -0.54308E-07   -0.30833E-07   948   0.197E-03
  17 F= -.11625218E+04 E0= -.11625218E+04  d E =0.386732E-03  mag=     6.0000
       N       E                     dE             d eps       ncg     rms          rms(c)
DAV:   1    -0.116252176279E+04    0.82429E-05   -0.16522E-02  6128   0.151E-01    0.392E-02
RMM:   2    -0.116252180084E+04   -0.38054E-04   -0.39891E-04  4374   0.266E-02    0.277E-02
RMM:   3    -0.116252180400E+04   -0.31627E-05   -0.29945E-05  3256   0.112E-02    0.152E-02
RMM:   4    -0.116252180371E+04    0.29588E-06   -0.10197E-05  3125   0.444E-03    0.103E-02
RMM:   5    -0.116252180344E+04    0.26565E-06   -0.32720E-06  2511   0.322E-03    0.322E-03
RMM:   6    -0.116252180359E+04   -0.15249E-06   -0.99934E-07  1357   0.206E-03    0.126E-03
RMM:   7    -0.116252180365E+04   -0.51223E-07   -0.42683E-07  1119   0.206E-03    0.792E-04
RMM:   8    -0.116252180367E+04   -0.21028E-07   -0.10481E-07   743   0.181E-03
  18 F= -.11625218E+04 E0= -.11625218E+04  d E =-.325824E-04  mag=     6.0000
       N       E                     dE             d eps       ncg     rms          rms(c)
DAV:   1    -0.116252234847E+04   -0.54482E-03   -0.58319E-01  6336   0.884E-01    0.198E-01
RMM:   2    -0.116252379456E+04   -0.14461E-02   -0.14250E-02  6351   0.149E-01    0.116E-01
RMM:   3    -0.116252381007E+04   -0.15513E-04   -0.65108E-04  5158   0.487E-02    0.691E-02
RMM:   4    -0.116252377652E+04    0.33549E-04   -0.13383E-04  3610   0.162E-02    0.342E-02
RMM:   5    -0.116252377658E+04   -0.64116E-07   -0.53485E-05  3487   0.108E-02    0.141E-02
RMM:   6    -0.116252377903E+04   -0.24493E-05   -0.19342E-05  3379   0.703E-03    0.778E-03
RMM:   7    -0.116252378023E+04   -0.11945E-05   -0.11057E-05  3137   0.488E-03    0.636E-03
RMM:   8    -0.116252378092E+04   -0.68847E-06   -0.64014E-06  2801   0.417E-03
  19 F= -.11625238E+04 E0= -.11625238E+04  d E =-.197725E-02  mag=     6.0000
       N       E                     dE             d eps       ncg     rms          rms(c)
DAV:   1    -0.116252537441E+04   -0.15942E-02   -0.14808E+00  6336   0.138E+00    0.241E-01
RMM:   2    -0.116252866963E+04   -0.32952E-02   -0.35475E-02  6243   0.228E-01    0.149E-01
RMM:   3    -0.116252864221E+04    0.27419E-04   -0.17521E-03  6019   0.781E-02    0.987E-02
RMM:   4    -0.116252856462E+04    0.77594E-04   -0.41484E-04  4810   0.243E-02    0.609E-02
RMM:   5    -0.116252855711E+04    0.75021E-05   -0.94123E-05  3602   0.146E-02    0.184E-02
RMM:   6    -0.116252856225E+04   -0.51401E-05   -0.37516E-05  3481   0.926E-03    0.912E-03
RMM:   7    -0.116252856422E+04   -0.19655E-05   -0.18912E-05  3390   0.694E-03    0.665E-03
RMM:   8    -0.116252856546E+04   -0.12426E-05   -0.12494E-05  3215   0.512E-03
  20 F= -.11625286E+04 E0= -.11625286E+04  d E =-.478455E-02  mag=     6.0000
       N       E                     dE             d eps       ncg     rms          rms(c)
DAV:   1    -0.116252863656E+04   -0.72343E-04   -0.23001E+00  6320   0.172E+00    0.303E-01
RMM:   2    -0.116253382471E+04   -0.51881E-02   -0.55058E-02  6303   0.284E-01    0.189E-01
RMM:   3    -0.116253378359E+04    0.41121E-04   -0.26801E-03  6275   0.936E-02    0.122E-01
RMM:   4    -0.116253367051E+04    0.11308E-03   -0.63068E-04  5781   0.291E-02    0.707E-02
RMM:   5    -0.116253365605E+04    0.14461E-04   -0.17500E-04  3867   0.169E-02    0.190E-02
RMM:   6    -0.116253366167E+04   -0.56237E-05   -0.45665E-05  3525   0.109E-02    0.105E-02
RMM:   7    -0.116253366464E+04   -0.29644E-05   -0.27545E-05  3439   0.757E-03    0.901E-03
RMM:   8    -0.116253366637E+04   -0.17345E-05   -0.16999E-05  3344   0.649E-03
  21 F= -.11625337E+04 E0= -.11625337E+04  d E =-.510091E-02  mag=     6.0000
       N       E                     dE             d eps       ncg     rms          rms(c)
DAV:   1    -0.116253186966E+04    0.17950E-02   -0.28707E+00  6336   0.192E+00    0.334E-01
RMM:   2    -0.116253832166E+04   -0.64520E-02   -0.68695E-02  6291   0.318E-01    0.202E-01
RMM:   3    -0.116253827577E+04    0.45888E-04   -0.33899E-03  6315   0.107E-01    0.132E-01
RMM:   4    -0.116253814393E+04    0.13184E-03   -0.81291E-04  6226   0.328E-02    0.748E-02
RMM:   5    -0.116253813537E+04    0.85627E-05   -0.19835E-04  4025   0.176E-02    0.212E-02
RMM:   6    -0.116253814207E+04   -0.67025E-05   -0.52284E-05  3550   0.115E-02    0.112E-02
RMM:   7    -0.116253814573E+04   -0.36590E-05   -0.33582E-05  3464   0.829E-03    0.909E-03
RMM:   8    -0.116253814800E+04   -0.22732E-05   -0.20829E-05  3342   0.693E-03
  22 F= -.11625381E+04 E0= -.11625381E+04  d E =-.448163E-02  mag=     6.0000
       N       E                     dE             d eps       ncg     rms          rms(c)
DAV:   1    -0.116253582773E+04    0.23180E-02   -0.25155E+00  6344   0.180E+00    0.318E-01
RMM:   2    -0.116254150196E+04   -0.56742E-02   -0.60237E-02  6292   0.298E-01    0.192E-01
RMM:   3    -0.116254146713E+04    0.34834E-04   -0.29816E-03  6296   0.100E-01    0.124E-01
RMM:   4    -0.116254135329E+04    0.11384E-03   -0.70303E-04  6036   0.307E-02    0.706E-02
RMM:   5    -0.116254134179E+04    0.11497E-04   -0.18968E-04  3947   0.172E-02    0.202E-02
RMM:   6    -0.116254134794E+04   -0.61498E-05   -0.49045E-05  3538   0.114E-02    0.109E-02
RMM:   7    -0.116254135178E+04   -0.38399E-05   -0.32530E-05  3466   0.800E-03    0.864E-03
RMM:   8    -0.116254135419E+04   -0.24103E-05   -0.19976E-05  3354   0.697E-03
  23 F= -.11625414E+04 E0= -.11625414E+04  d E =-.320619E-02  mag=     6.0000
       N       E                     dE             d eps       ncg     rms          rms(c)
DAV:   1    -0.116254001575E+04    0.13360E-02   -0.15003E+00  6328   0.139E+00    0.240E-01
RMM:   2    -0.116254337684E+04   -0.33611E-02   -0.35948E-02  6317   0.230E-01    0.148E-01
RMM:   3    -0.116254334319E+04    0.33647E-04   -0.17739E-03  6120   0.768E-02    0.949E-02
RMM:   4    -0.116254327309E+04    0.70105E-04   -0.41154E-04  4918   0.240E-02    0.551E-02
RMM:   5    -0.116254326480E+04    0.82828E-05   -0.11066E-04  3647   0.150E-02    0.163E-02
RMM:   6    -0.116254327029E+04   -0.54806E-05   -0.37786E-05  3496   0.957E-03    0.966E-03
RMM:   7    -0.116254327298E+04   -0.26959E-05   -0.21540E-05  3405   0.697E-03    0.702E-03
RMM:   8    -0.116254327505E+04   -0.20661E-05   -0.14687E-05  3278   0.576E-03
  24 F= -.11625433E+04 E0= -.11625433E+04  d E =-.192086E-02  mag=     6.0000
       N       E                     dE             d eps       ncg     rms          rms(c)
DAV:   1    -0.116254076693E+04    0.25061E-02   -0.18287E+00  6328   0.153E+00    0.268E-01
RMM:   2    -0.116254487369E+04   -0.41068E-02   -0.43605E-02  6330   0.253E-01    0.159E-01
RMM:   3    -0.116254483593E+04    0.37760E-04   -0.21118E-03  6209   0.822E-02    0.103E-01
RMM:   4    -0.116254474775E+04    0.88174E-04   -0.48984E-04  5222   0.259E-02    0.570E-02
RMM:   5    -0.116254474134E+04    0.64143E-05   -0.12468E-04  3670   0.154E-02    0.171E-02
RMM:   6    -0.116254474717E+04   -0.58309E-05   -0.40944E-05  3519   0.100E-02    0.946E-03
RMM:   7    -0.116254475002E+04   -0.28473E-05   -0.23110E-05  3417   0.726E-03    0.775E-03
RMM:   8    -0.116254475213E+04   -0.21109E-05   -0.15464E-05  3303   0.603E-03
  25 F= -.11625448E+04 E0= -.11625448E+04  d E =-.147708E-02  mag=     6.0000
       N       E                     dE             d eps       ncg     rms          rms(c)
DAV:   1    -0.116254429508E+04    0.45494E-03   -0.32294E-01  6432   0.649E-01    0.118E-01
RMM:   2    -0.116254502645E+04   -0.73137E-03   -0.79337E-03  6331   0.109E-01    0.722E-02
RMM:   3    -0.116254501021E+04    0.16235E-04   -0.34720E-04  4304   0.347E-02    0.465E-02
RMM:   4    -0.116254499284E+04    0.17366E-04   -0.92041E-05  3566   0.126E-02    0.249E-02
RMM:   5    -0.116254499456E+04   -0.17117E-05   -0.31142E-05  3463   0.836E-03    0.107E-02
RMM:   6    -0.116254499647E+04   -0.19095E-05   -0.13813E-05  3332   0.558E-03    0.638E-03
RMM:   7    -0.116254499761E+04   -0.11496E-05   -0.78431E-06  3005   0.429E-03    0.486E-03
RMM:   8    -0.116254499856E+04   -0.94478E-06   -0.52120E-06  2620   0.353E-03
  26 F= -.11625450E+04 E0= -.11625450E+04  d E =-.246433E-03  mag=     6.0000
       N       E                     dE             d eps       ncg     rms          rms(c)
DAV:   1    -0.116254242838E+04    0.25692E-02   -0.13728E+00  6384   0.133E+00    0.235E-01
RMM:   2    -0.116254550467E+04   -0.30763E-02   -0.32653E-02  6270   0.220E-01    0.138E-01
RMM:   3    -0.116254548749E+04    0.17173E-04   -0.16073E-03  5984   0.744E-02    0.888E-02
RMM:   4    -0.116254542463E+04    0.62861E-04   -0.35880E-04  4536   0.228E-02    0.519E-02
RMM:   5    -0.116254541861E+04    0.60259E-05   -0.95989E-05  3597   0.144E-02    0.191E-02
RMM:   6    -0.116254542386E+04   -0.52577E-05   -0.35972E-05  3483   0.928E-03    0.984E-03
RMM:   7    -0.116254542635E+04   -0.24893E-05   -0.19530E-05  3390   0.682E-03    0.707E-03
RMM:   8    -0.116254542814E+04   -0.17903E-05   -0.12922E-05  3231   0.542E-03
  27 F= -.11625454E+04 E0= -.11625454E+04  d E =-.429583E-03  mag=     6.0000
       N       E                     dE             d eps       ncg     rms          rms(c)
DAV:   1    -0.116254364735E+04    0.17790E-02   -0.74464E-01  6328   0.985E-01    0.178E-01
RMM:   2    -0.116254535997E+04   -0.17126E-02   -0.18080E-02  6373   0.165E-01    0.104E-01
RMM:   3    -0.116254534357E+04    0.16398E-04   -0.83011E-04  5316   0.509E-02    0.661E-02
RMM:   4    -0.116254530700E+04    0.36568E-04   -0.17085E-04  3766   0.171E-02    0.361E-02
RMM:   5    -0.116254530691E+04    0.89974E-07   -0.63174E-05  3538   0.115E-02    0.168E-02
RMM:   6    -0.116254531024E+04   -0.33234E-05   -0.23905E-05  3434   0.774E-03    0.909E-03
RMM:   7    -0.116254531211E+04   -0.18750E-05   -0.14090E-05  3283   0.558E-03    0.739E-03
RMM:   8    -0.116254531335E+04   -0.12340E-05   -0.89190E-06  3030   0.482E-03
  28 F= -.11625453E+04 E0= -.11625453E+04  d E =0.114797E-03  mag=     6.0000
       N       E                     dE             d eps       ncg     rms          rms(c)
DAV:   1    -0.116254386627E+04    0.14458E-02   -0.46249E-01  6384   0.782E-01    0.145E-01
RMM:   2    -0.116254493398E+04   -0.10677E-02   -0.11349E-02  6304   0.131E-01    0.852E-02
RMM:   3    -0.116254492283E+04    0.11158E-04   -0.51048E-04  4682   0.423E-02    0.542E-02
RMM:   4    -0.116254490059E+04    0.22233E-04   -0.11427E-04  3603   0.145E-02    0.304E-02
RMM:   5    -0.116254490160E+04   -0.10113E-05   -0.41712E-05  3506   0.962E-03    0.164E-02
RMM:   6    -0.116254490414E+04   -0.25387E-05   -0.18067E-05  3383   0.659E-03    0.753E-03
RMM:   7    -0.116254490566E+04   -0.15180E-05   -0.10458E-05  3198   0.494E-03    0.682E-03
RMM:   8    -0.116254490668E+04   -0.10198E-05   -0.65723E-06  2810   0.408E-03
  29 F= -.11625449E+04 E0= -.11625449E+04  d E =0.406665E-03  mag=     6.0000
