       N       E                     dE             d eps       ncg     rms          rms(c)
DAV:   1     0.118960166883E+05    0.11896E+05   -0.42044E+05  6168   0.131E+03
DAV:   2     0.638112865462E+03   -0.11258E+05   -0.10053E+05  6160   0.375E+02
DAV:   3    -0.136491452407E+04   -0.20030E+04   -0.19302E+04  6592   0.165E+02
DAV:   4    -0.149969508752E+04   -0.13478E+03   -0.13256E+03  8104   0.442E+01
DAV:   5    -0.150815336461E+04   -0.84583E+01   -0.84201E+01 11056   0.101E+01    0.180E+02
RMM:   6    -0.116468749340E+04    0.34347E+03   -0.15844E+03  6271   0.344E+01    0.109E+02
RMM:   7    -0.115030994633E+04    0.14378E+02   -0.59674E+01  6406   0.109E+01    0.633E+01
RMM:   8    -0.115400288962E+04   -0.36929E+01   -0.20663E+01  6843   0.518E+00    0.291E+01
RMM:   9    -0.115742419071E+04   -0.34213E+01   -0.57596E+00  6555   0.274E+00    0.903E+00
RMM:  10    -0.115854398863E+04   -0.11198E+01   -0.15705E+00  7247   0.120E+00    0.591E+00
RMM:  11    -0.115973186424E+04   -0.11879E+01   -0.14034E+00  7304   0.953E-01    0.393E+00
RMM:  12    -0.116044962901E+04   -0.71776E+00   -0.72797E-01  6476   0.827E-01    0.208E+00
RMM:  13    -0.116054038807E+04   -0.90759E-01   -0.15323E-01  7984   0.375E-01    0.141E+00
RMM:  14    -0.116060539894E+04   -0.65011E-01   -0.94703E-02  7151   0.262E-01    0.802E-01
RMM:  15    -0.116062182297E+04   -0.16424E-01   -0.34165E-02  7458   0.166E-01    0.408E-01
RMM:  16    -0.116062409839E+04   -0.22754E-02   -0.10961E-02  8488   0.877E-02    0.198E-01
RMM:  17    -0.116062502231E+04   -0.92391E-03   -0.40829E-03  7828   0.514E-02    0.990E-02
RMM:  18    -0.116062511386E+04   -0.91550E-04   -0.12470E-03  6627   0.291E-02    0.517E-02
RMM:  19    -0.116062518674E+04   -0.72882E-04   -0.60341E-04  5581   0.188E-02
   1 F= -.11606252E+04 E0= -.11606252E+04  d E =-.116063E+04  mag=     8.0047
       N       E                     dE             d eps       ncg     rms          rms(c)
DAV:   1    -0.116066567783E+04   -0.40564E-01   -0.31479E+02  7096   0.200E+01    0.818E+00
RMM:   2    -0.116137692367E+04   -0.71125E+00   -0.13094E+01  6144   0.442E+00    0.797E+00
RMM:   3    -0.116130486611E+04    0.72058E-01   -0.74514E-01  6923   0.122E+00    0.492E+00
RMM:   4    -0.116117327083E+04    0.13160E+00   -0.34337E-01  6793   0.592E-01    0.243E+00
RMM:   5    -0.116115763292E+04    0.15638E-01   -0.10798E-01  6585   0.370E-01    0.111E+00
RMM:   6    -0.116115787017E+04   -0.23725E-03   -0.17054E-02  8227   0.118E-01    0.869E-01
RMM:   7    -0.116116406940E+04   -0.61992E-02   -0.13387E-02  7323   0.106E-01    0.153E+00
RMM:   8    -0.116115737146E+04    0.66979E-02   -0.24857E-02  6491   0.147E-01    0.951E-01
RMM:   9    -0.116115784688E+04   -0.47542E-03   -0.48736E-03  6377   0.663E-02    0.120E+00
RMM:  10    -0.116115794097E+04   -0.94088E-04   -0.52386E-04  5221   0.227E-02
   2 F= -.11611579E+04 E0= -.11611484E+04  d E =-.532754E+00  mag=     7.9729
       N       E                     dE             d eps       ncg     rms          rms(c)
DAV:   1    -0.116133838306E+04   -0.18054E+00   -0.38166E+01  6952   0.706E+00    0.272E+00
RMM:   2    -0.116140326046E+04   -0.64877E-01   -0.13876E+00  6144   0.150E+00    0.284E+00
RMM:   3    -0.116139309604E+04    0.10164E-01   -0.73969E-02  6635   0.407E-01    0.183E+00
RMM:   4    -0.116137854790E+04    0.14548E-01   -0.32563E-02  6587   0.190E-01    0.101E+00
RMM:   5    -0.116137569709E+04    0.28508E-02   -0.16119E-02  6239   0.128E-01    0.419E-01
RMM:   6    -0.116137537711E+04    0.31998E-03   -0.23303E-03  6093   0.495E-02    0.229E-01
RMM:   7    -0.116137519058E+04    0.18654E-03   -0.51766E-04  5321   0.203E-02    0.131E-01
RMM:   8    -0.116137519917E+04   -0.85898E-05   -0.24349E-04  4499   0.168E-02
   3 F= -.11613752E+04 E0= -.11613752E+04  d E =-.750012E+00  mag=     7.9980
       N       E                     dE             d eps       ncg     rms          rms(c)
DAV:   1    -0.116147425756E+04   -0.99067E-01   -0.84604E+01  6448   0.106E+01    0.259E+00
RMM:   2    -0.116165300747E+04   -0.17875E+00   -0.25285E+00  6144   0.200E+00    0.225E+00
RMM:   3    -0.116164237614E+04    0.10631E-01   -0.11328E-01  6658   0.503E-01    0.148E+00
RMM:   4    -0.116163036394E+04    0.12012E-01   -0.37178E-02  6985   0.203E-01    0.847E-01
RMM:   5    -0.116162668824E+04    0.36757E-02   -0.13320E-02  6845   0.123E-01    0.386E-01
RMM:   6    -0.116162670477E+04   -0.16528E-04   -0.18795E-03  7711   0.466E-02    0.174E-01
RMM:   7    -0.116162665266E+04    0.52103E-04   -0.62629E-04  6449   0.209E-02    0.113E-01
RMM:   8    -0.116162667586E+04   -0.23198E-04   -0.40270E-04  5265   0.199E-02
   4 F= -.11616267E+04 E0= -.11616267E+04  d E =-.251477E+00  mag=     7.9998
       N       E                     dE             d eps       ncg     rms          rms(c)
DAV:   1    -0.116162725654E+04   -0.60388E-03   -0.75220E-01  7120   0.101E+00    0.242E-01
RMM:   2    -0.116162886999E+04   -0.16135E-02   -0.22769E-02  6146   0.190E-01    0.216E-01
RMM:   3    -0.116162876187E+04    0.10813E-03   -0.10719E-03  6167   0.493E-02    0.144E-01
RMM:   4    -0.116162866117E+04    0.10069E-03   -0.43032E-04  5157   0.212E-02    0.846E-02
RMM:   5    -0.116162862188E+04    0.39295E-04   -0.10475E-04  4016   0.139E-02    0.375E-02
RMM:   6    -0.116162862554E+04   -0.36604E-05   -0.31868E-05  3657   0.826E-03    0.152E-02
RMM:   7    -0.116162862646E+04   -0.92124E-06   -0.15190E-05  3539   0.595E-03    0.118E-02
RMM:   8    -0.116162862742E+04   -0.96648E-06   -0.11119E-05  3383   0.436E-03
   5 F= -.11616286E+04 E0= -.11616286E+04  d E =-.253428E+00  mag=     7.9999
       N       E                     dE             d eps       ncg     rms          rms(c)
DAV:   1    -0.116163986176E+04   -0.11235E-01   -0.36282E+01  6400   0.706E+00    0.188E+00
RMM:   2    -0.116172803519E+04   -0.88173E-01   -0.10423E+00  6144   0.129E+00    0.161E+00
RMM:   3    -0.116172499655E+04    0.30386E-02   -0.46881E-02  6416   0.356E-01    0.102E+00
RMM:   4    -0.116172039306E+04    0.46035E-02   -0.18812E-02  7022   0.141E-01    0.557E-01
RMM:   5    -0.116171887216E+04    0.15209E-02   -0.58406E-03  6814   0.823E-02    0.131E-01
RMM:   6    -0.116171888556E+04   -0.13398E-04   -0.81197E-04  6480   0.285E-02    0.781E-02
RMM:   7    -0.116171888980E+04   -0.42426E-05   -0.31259E-04  4853   0.152E-02    0.478E-02
RMM:   8    -0.116171889875E+04   -0.89489E-05   -0.17104E-04  4243   0.141E-02
   6 F= -.11617189E+04 E0= -.11617188E+04  d E =-.902713E-01  mag=     7.9994
       N       E                     dE             d eps       ncg     rms          rms(c)
DAV:   1    -0.116171857879E+04    0.31101E-03   -0.11487E+00  6848   0.126E+00    0.332E-01
RMM:   2    -0.116172137089E+04   -0.27921E-02   -0.33011E-02  6147   0.229E-01    0.287E-01
RMM:   3    -0.116172128184E+04    0.89047E-04   -0.16107E-03  6343   0.650E-02    0.182E-01
RMM:   4    -0.116172113704E+04    0.14480E-03   -0.66128E-04  5566   0.258E-02    0.986E-02
RMM:   5    -0.116172108469E+04    0.52350E-04   -0.16679E-04  4091   0.171E-02    0.265E-02
RMM:   6    -0.116172108824E+04   -0.35517E-05   -0.38847E-05  3604   0.100E-02    0.169E-02
RMM:   7    -0.116172108990E+04   -0.16597E-05   -0.22352E-05  3487   0.624E-03    0.108E-02
RMM:   8    -0.116172109100E+04   -0.10991E-05   -0.13960E-05  3429   0.584E-03
   7 F= -.11617211E+04 E0= -.11617210E+04  d E =-.924636E-01  mag=     7.9992
       N       E                     dE             d eps       ncg     rms          rms(c)
DAV:   1    -0.116171483825E+04    0.62517E-02   -0.23148E+01  6392   0.564E+00    0.131E+00
RMM:   2    -0.116177174169E+04   -0.56903E-01   -0.61606E-01  6146   0.990E-01    0.104E+00
RMM:   3    -0.116177160737E+04    0.13432E-03   -0.27598E-02  6400   0.280E-01    0.654E-01
RMM:   4    -0.116176985577E+04    0.17516E-02   -0.87556E-03  7430   0.961E-02    0.378E-01
RMM:   5    -0.116176950695E+04    0.34882E-03   -0.26237E-03  7033   0.512E-02    0.189E-01
RMM:   6    -0.116176954088E+04   -0.33935E-04   -0.42018E-04  5465   0.208E-02    0.526E-02
RMM:   7    -0.116176954714E+04   -0.62609E-05   -0.20595E-04  4288   0.144E-02    0.349E-02
RMM:   8    -0.116176955644E+04   -0.92928E-05   -0.11752E-04  3828   0.114E-02
   8 F= -.11617696E+04 E0= -.11617694E+04  d E =-.484654E-01  mag=     7.9982
       N       E                     dE             d eps       ncg     rms          rms(c)
DAV:   1    -0.116175538038E+04    0.14167E-01   -0.98519E+00  6416   0.368E+00    0.851E-01
RMM:   2    -0.116177961820E+04   -0.24238E-01   -0.26182E-01  6147   0.644E-01    0.673E-01
RMM:   3    -0.116177953852E+04    0.79689E-04   -0.11870E-02  6413   0.183E-01    0.421E-01
RMM:   4    -0.116177881410E+04    0.72442E-03   -0.38444E-03  7415   0.629E-02    0.243E-01
RMM:   5    -0.116177866761E+04    0.14648E-03   -0.12268E-03  6687   0.339E-02    0.118E-01
RMM:   6    -0.116177867555E+04   -0.79406E-05   -0.16359E-04  4205   0.143E-02    0.339E-02
RMM:   7    -0.116177867950E+04   -0.39412E-05   -0.91448E-05  3765   0.118E-02    0.230E-02
RMM:   8    -0.116177868470E+04   -0.52077E-05   -0.58325E-05  3639   0.866E-03
   9 F= -.11617787E+04 E0= -.11617784E+04  d E =-.575937E-01  mag=     7.9973
       N       E                     dE             d eps       ncg     rms          rms(c)
DAV:   1    -0.116177162777E+04    0.70517E-02   -0.21272E+01  6272   0.536E+00    0.104E+00
RMM:   2    -0.116181571766E+04   -0.44090E-01   -0.53848E-01  6147   0.900E-01    0.745E-01
RMM:   3    -0.116181413812E+04    0.15795E-02   -0.24204E-02  6313   0.260E-01    0.483E-01
RMM:   4    -0.116181240969E+04    0.17284E-02   -0.88010E-03  7477   0.938E-02    0.314E-01
RMM:   5    -0.116181203999E+04    0.36970E-03   -0.19087E-03  7272   0.444E-02    0.115E-01
RMM:   6    -0.116181206685E+04   -0.26862E-04   -0.49567E-04  5848   0.198E-02    0.627E-02
RMM:   7    -0.116181207642E+04   -0.95629E-05   -0.19554E-04  4278   0.139E-02    0.383E-02
RMM:   8    -0.116181208568E+04   -0.92653E-05   -0.11444E-04  3825   0.105E-02
  10 F= -.11618121E+04 E0= -.11618114E+04  d E =-.334010E-01  mag=     7.9914
       N       E                     dE             d eps       ncg     rms          rms(c)
DAV:   1    -0.116180973055E+04    0.23459E-02   -0.24850E+00  6544   0.183E+00    0.355E-01
RMM:   2    -0.116181489519E+04   -0.51646E-02   -0.62986E-02  6151   0.307E-01    0.255E-01
RMM:   3    -0.116181470516E+04    0.19003E-03   -0.29498E-03  6268   0.906E-02    0.165E-01
RMM:   4    -0.116181450988E+04    0.19528E-03   -0.10839E-03  6431   0.326E-02    0.111E-01
RMM:   5    -0.116181445824E+04    0.51635E-04   -0.20237E-04  4376   0.183E-02    0.429E-02
RMM:   6    -0.116181446382E+04   -0.55833E-05   -0.71355E-05  3632   0.114E-02    0.203E-02
RMM:   7    -0.116181446729E+04   -0.34658E-05   -0.41714E-05  3553   0.900E-03    0.150E-02
RMM:   8    -0.116181446956E+04   -0.22698E-05   -0.25436E-05  3419   0.660E-03
  11 F= -.11618145E+04 E0= -.11618136E+04  d E =-.357849E-01  mag=     7.9868
       N       E                     dE             d eps       ncg     rms          rms(c)
DAV:   1    -0.116180806190E+04    0.64054E-02   -0.13585E+01  6320   0.423E+00    0.799E-01
RMM:   2    -0.116183768437E+04   -0.29622E-01   -0.34063E-01  6145   0.710E-01    0.589E-01
RMM:   3    -0.116183672608E+04    0.95829E-03   -0.14372E-02  6304   0.191E-01    0.385E-01
RMM:   4    -0.116183576785E+04    0.95823E-03   -0.47584E-03  7526   0.692E-02    0.228E-01
RMM:   5    -0.116183562696E+04    0.14089E-03   -0.11558E-03  6898   0.330E-02    0.561E-02
RMM:   6    -0.116183563723E+04   -0.10272E-04   -0.20934E-04  4484   0.150E-02    0.384E-02
RMM:   7    -0.116183564261E+04   -0.53721E-05   -0.10727E-04  3805   0.127E-02    0.260E-02
RMM:   8    -0.116183564851E+04   -0.59046E-05   -0.69013E-05  3644   0.880E-03
  12 F= -.11618356E+04 E0= -.11618349E+04  d E =-.211790E-01  mag=     7.9877
       N       E                     dE             d eps       ncg     rms          rms(c)
DAV:   1    -0.116182992996E+04    0.57126E-02   -0.43521E+00  6336   0.239E+00    0.452E-01
RMM:   2    -0.116183943736E+04   -0.95074E-02   -0.10934E-01  6144   0.401E-01    0.334E-01
RMM:   3    -0.116183912183E+04    0.31553E-03   -0.47089E-03  6279   0.109E-01    0.218E-01
RMM:   4    -0.116183881723E+04    0.30459E-03   -0.16428E-03  6715   0.401E-02    0.118E-01
RMM:   5    -0.116183876860E+04    0.48629E-04   -0.35880E-04  5158   0.209E-02    0.301E-02
RMM:   6    -0.116183877353E+04   -0.49294E-05   -0.72873E-05  3659   0.119E-02    0.206E-02
RMM:   7    -0.116183877788E+04   -0.43430E-05   -0.58053E-05  3593   0.900E-03    0.175E-02
RMM:   8    -0.116183878025E+04   -0.23768E-05   -0.34359E-05  3497   0.743E-03
  13 F= -.11618388E+04 E0= -.11618381E+04  d E =-.243107E-01  mag=     7.9884
       N       E                     dE             d eps       ncg     rms          rms(c)
DAV:   1    -0.116182573909E+04    0.13039E-01   -0.12933E+01  6368   0.417E+00    0.823E-01
RMM:   2    -0.116185382241E+04   -0.28083E-01   -0.33030E-01  6144   0.701E-01    0.655E-01
RMM:   3    -0.116185293744E+04    0.88497E-03   -0.13744E-02  6314   0.184E-01    0.434E-01
RMM:   4    -0.116185218009E+04    0.75735E-03   -0.52490E-03  7393   0.712E-02    0.227E-01
RMM:   5    -0.116185189461E+04    0.28548E-03   -0.13738E-03  7068   0.359E-02    0.499E-02
RMM:   6    -0.116185189641E+04   -0.18048E-05   -0.21337E-04  4455   0.151E-02    0.360E-02
RMM:   7    -0.116185190223E+04   -0.58215E-05   -0.10935E-04  3811   0.127E-02    0.280E-02
RMM:   8    -0.116185190777E+04   -0.55385E-05   -0.69998E-05  3653   0.904E-03
  14 F= -.11618519E+04 E0= -.11618515E+04  d E =-.131275E-01  mag=     7.9934
       N       E                     dE             d eps       ncg     rms          rms(c)
DAV:   1    -0.116185169685E+04    0.20539E-03   -0.16931E-01  6752   0.477E-01    0.938E-02
RMM:   2    -0.116185208095E+04   -0.38410E-03   -0.44991E-03  6221   0.818E-02    0.762E-02
RMM:   3    -0.116185206308E+04    0.17865E-04   -0.18284E-04  3839   0.249E-02    0.507E-02
RMM:   4    -0.116185205441E+04    0.86768E-05   -0.83436E-05  3567   0.105E-02    0.250E-02
RMM:   5    -0.116185205317E+04    0.12350E-05   -0.27792E-05  3485   0.740E-03    0.697E-03
RMM:   6    -0.116185205458E+04   -0.14071E-05   -0.14484E-05  3283   0.485E-03    0.502E-03
RMM:   7    -0.116185205535E+04   -0.77309E-06   -0.85756E-06  2947   0.434E-03    0.338E-03
RMM:   8    -0.116185205595E+04   -0.59740E-06   -0.61180E-06  2472   0.315E-03
  15 F= -.11618521E+04 E0= -.11618516E+04  d E =-.132757E-01  mag=     7.9942
       N       E                     dE             d eps       ncg     rms          rms(c)
DAV:   1    -0.116184340912E+04    0.86462E-02   -0.90673E+00  6336   0.350E+00    0.656E-01
RMM:   2    -0.116186334185E+04   -0.19933E-01   -0.22562E-01  6144   0.577E-01    0.450E-01
RMM:   3    -0.116186282356E+04    0.51829E-03   -0.96108E-03  6200   0.163E-01    0.292E-01
RMM:   4    -0.116186236250E+04    0.46106E-03   -0.34566E-03  7494   0.587E-02    0.152E-01
RMM:   5    -0.116186229102E+04    0.71471E-04   -0.62277E-04  6180   0.253E-02    0.719E-02
RMM:   6    -0.116186230546E+04   -0.14438E-04   -0.17089E-04  3909   0.129E-02    0.271E-02
RMM:   7    -0.116186231070E+04   -0.52327E-05   -0.73064E-05  3686   0.112E-02    0.178E-02
RMM:   8    -0.116186231577E+04   -0.50790E-05   -0.58214E-05  3586   0.821E-03
  16 F= -.11618623E+04 E0= -.11618620E+04  d E =-.102598E-01  mag=     7.9956
       N       E                     dE             d eps       ncg     rms          rms(c)
DAV:   1    -0.116185865272E+04    0.36580E-02   -0.24975E+00  6384   0.184E+00    0.345E-01
RMM:   2    -0.116186418566E+04   -0.55329E-02   -0.62594E-02  6148   0.303E-01    0.238E-01
RMM:   3    -0.116186403702E+04    0.14864E-03   -0.27532E-03  6098   0.876E-02    0.155E-01
RMM:   4    -0.116186390979E+04    0.12723E-03   -0.96660E-04  6413   0.308E-02    0.673E-02
RMM:   5    -0.116186389162E+04    0.18175E-04   -0.18212E-04  4177   0.168E-02    0.350E-02
RMM:   6    -0.116186389612E+04   -0.45048E-05   -0.54321E-05  3596   0.106E-02    0.152E-02
RMM:   7    -0.116186389993E+04   -0.38127E-05   -0.41380E-05  3496   0.838E-03    0.105E-02
RMM:   8    -0.116186390226E+04   -0.23282E-05   -0.27030E-05  3385   0.663E-03
  17 F= -.11618639E+04 E0= -.11618636E+04  d E =-.118463E-01  mag=     7.9962
       N       E                     dE             d eps       ncg     rms          rms(c)
DAV:   1    -0.116185264805E+04    0.11252E-01   -0.87896E+00  6336   0.343E+00    0.657E-01
RMM:   2    -0.116187155699E+04   -0.18909E-01   -0.22311E-01  6144   0.582E-01    0.548E-01
RMM:   3    -0.116187102657E+04    0.53041E-03   -0.95056E-03  6267   0.158E-01    0.369E-01
RMM:   4    -0.116187041731E+04    0.60927E-03   -0.32564E-03  7451   0.570E-02    0.219E-01
RMM:   5    -0.116187021945E+04    0.19786E-03   -0.10897E-03  6475   0.314E-02    0.138E-01
RMM:   6    -0.116187022357E+04   -0.41215E-05   -0.15954E-04  4137   0.144E-02    0.351E-02
RMM:   7    -0.116187022604E+04   -0.24751E-05   -0.63382E-05  3689   0.108E-02    0.230E-02
RMM:   8    -0.116187022936E+04   -0.33180E-05   -0.54623E-05  3625   0.836E-03
  18 F= -.11618702E+04 E0= -.11618698E+04  d E =-.632710E-02  mag=     7.9945
       N       E                     dE             d eps       ncg     rms          rms(c)
DAV:   1    -0.116187018366E+04    0.42382E-04   -0.41451E-02  6736   0.236E-01    0.463E-02
RMM:   2    -0.116187027043E+04   -0.86770E-04   -0.10252E-03  5952   0.415E-02    0.380E-02
RMM:   3    -0.116187026894E+04    0.14879E-05   -0.39785E-05  3479   0.129E-02    0.247E-02
RMM:   4    -0.116187026700E+04    0.19402E-05   -0.13115E-05  3298   0.502E-03    0.140E-02
RMM:   5    -0.116187026636E+04    0.64001E-06   -0.48521E-06  2755   0.336E-03    0.132E-02
RMM:   6    -0.116187026655E+04   -0.18551E-06   -0.15142E-06  1683   0.227E-03    0.233E-03
RMM:   7    -0.116187026663E+04   -0.79250E-07   -0.62243E-07  1060   0.193E-03    0.151E-03
RMM:   8    -0.116187026669E+04   -0.56607E-07   -0.24779E-07   839   0.178E-03
  19 F= -.11618703E+04 E0= -.11618699E+04  d E =-.636442E-02  mag=     7.9945
       N       E                     dE             d eps       ncg     rms          rms(c)
DAV:   1    -0.116186496948E+04    0.52972E-02   -0.46826E+00  6384   0.252E+00    0.456E-01
RMM:   2    -0.116187510242E+04   -0.10133E-01   -0.11607E-01  6144   0.415E-01    0.324E-01
RMM:   3    -0.116187479795E+04    0.30447E-03   -0.48776E-03  6088   0.115E-01    0.212E-01
RMM:   4    -0.116187452892E+04    0.26903E-03   -0.17275E-03  6808   0.418E-02    0.111E-01
RMM:   5    -0.116187446433E+04    0.64591E-04   -0.32817E-04  4914   0.204E-02    0.461E-02
RMM:   6    -0.116187447105E+04   -0.67163E-05   -0.75946E-05  3626   0.122E-02    0.189E-02
RMM:   7    -0.116187447558E+04   -0.45317E-05   -0.49850E-05  3583   0.914E-03    0.132E-02
RMM:   8    -0.116187447777E+04   -0.21905E-05   -0.27763E-05  3424   0.688E-03
  20 F= -.11618745E+04 E0= -.11618740E+04  d E =-.421109E-02  mag=     7.9930
       N       E                     dE             d eps       ncg     rms          rms(c)
DAV:   1    -0.116187416313E+04    0.31245E-03   -0.22976E-01  6440   0.558E-01    0.101E-01
RMM:   2    -0.116187467615E+04   -0.51302E-03   -0.58586E-03  6202   0.939E-02    0.723E-02
RMM:   3    -0.116187465823E+04    0.17923E-04   -0.24645E-04  4056   0.291E-02    0.476E-02
RMM:   4    -0.116187464589E+04    0.12333E-04   -0.89051E-05  3555   0.110E-02    0.242E-02
RMM:   5    -0.116187464540E+04    0.49507E-06   -0.28814E-05  3474   0.753E-03    0.126E-02
RMM:   6    -0.116187464681E+04   -0.14100E-05   -0.13790E-05  3322   0.503E-03    0.684E-03
RMM:   7    -0.116187464759E+04   -0.77899E-06   -0.81234E-06  3003   0.419E-03    0.451E-03
RMM:   8    -0.116187464811E+04   -0.52073E-06   -0.52667E-06  2511   0.323E-03
  21 F= -.11618746E+04 E0= -.11618741E+04  d E =-.438142E-02  mag=     7.9924
       N       E                     dE             d eps       ncg     rms          rms(c)
DAV:   1    -0.116187036028E+04    0.42873E-02   -0.33918E+00  6392   0.215E+00    0.419E-01
RMM:   2    -0.116187776696E+04   -0.74067E-02   -0.87216E-02  6144   0.366E-01    0.346E-01
RMM:   3    -0.116187750954E+04    0.25742E-03   -0.36259E-03  6150   0.983E-02    0.231E-01
RMM:   4    -0.116187725566E+04    0.25388E-03   -0.14028E-03  6545   0.367E-02    0.117E-01
RMM:   5    -0.116187719040E+04    0.65258E-04   -0.35870E-04  5040   0.211E-02    0.258E-02
RMM:   6    -0.116187719160E+04   -0.11981E-05   -0.57923E-05  3608   0.115E-02    0.174E-02
RMM:   7    -0.116187719446E+04   -0.28652E-05   -0.39081E-05  3527   0.798E-03    0.127E-02
RMM:   8    -0.116187719660E+04   -0.21410E-05   -0.24543E-05  3466   0.706E-03
  22 F= -.11618772E+04 E0= -.11618767E+04  d E =-.254849E-02  mag=     7.9927
       N       E                     dE             d eps       ncg     rms          rms(c)
DAV:   1    -0.116187716040E+04    0.34060E-04   -0.34756E-02  6512   0.218E-01    0.432E-02
RMM:   2    -0.116187723480E+04   -0.74400E-04   -0.88160E-04  5960   0.383E-02    0.350E-02
RMM:   3    -0.116187723277E+04    0.20310E-05   -0.32025E-05  3432   0.116E-02    0.228E-02
RMM:   4    -0.116187723050E+04    0.22721E-05   -0.12316E-05  3316   0.458E-03    0.118E-02
RMM:   5    -0.116187723009E+04    0.41134E-06   -0.22188E-06  2250   0.269E-03    0.278E-03
RMM:   6    -0.116187723015E+04   -0.62224E-07   -0.44454E-07  1146   0.192E-03    0.129E-03
RMM:   7    -0.116187723017E+04   -0.20256E-07   -0.17070E-07   830   0.187E-03    0.724E-04
RMM:   8    -0.116187723018E+04   -0.62428E-08   -0.25820E-08   663   0.178E-03
  23 F= -.11618772E+04 E0= -.11618767E+04  d E =-.258207E-02  mag=     7.9927
       N       E                     dE             d eps       ncg     rms          rms(c)
DAV:   1    -0.116187588286E+04    0.13473E-02   -0.12719E+00  6416   0.132E+00    0.279E-01
RMM:   2    -0.116187865466E+04   -0.27718E-02   -0.34070E-02  6144   0.231E-01    0.225E-01
RMM:   3    -0.116187853494E+04    0.11972E-03   -0.14089E-03  6171   0.607E-02    0.149E-01
RMM:   4    -0.116187840906E+04    0.12588E-03   -0.54241E-04  5343   0.243E-02    0.898E-02
RMM:   5    -0.116187837537E+04    0.33686E-04   -0.10477E-04  3979   0.148E-02    0.522E-02
RMM:   6    -0.116187837925E+04   -0.38785E-05   -0.37729E-05  3542   0.879E-03    0.156E-02
RMM:   7    -0.116187838050E+04   -0.12443E-05   -0.16886E-05  3432   0.648E-03    0.114E-02
RMM:   8    -0.116187838143E+04   -0.93250E-06   -0.10726E-05  3107   0.438E-03
  24 F= -.11618784E+04 E0= -.11618778E+04  d E =-.115125E-02  mag=     7.9919
       N       E                     dE             d eps       ncg     rms          rms(c)
DAV:   1    -0.116187835617E+04    0.24326E-04   -0.34031E-02  6416   0.216E-01    0.460E-02
RMM:   2    -0.116187842799E+04   -0.71817E-04   -0.88806E-04  5990   0.385E-02    0.363E-02
RMM:   3    -0.116187842516E+04    0.28314E-05   -0.31562E-05  3388   0.116E-02    0.240E-02
RMM:   4    -0.116187842231E+04    0.28445E-05   -0.13460E-05  3253   0.489E-03    0.159E-02
RMM:   5    -0.116187842182E+04    0.48934E-06   -0.30861E-06  2476   0.307E-03    0.124E-02
RMM:   6    -0.116187842184E+04   -0.19529E-07   -0.75270E-07  1274   0.196E-03    0.321E-03
RMM:   7    -0.116187842186E+04   -0.16968E-07   -0.19141E-07   985   0.186E-03    0.192E-03
RMM:   8    -0.116187842186E+04   -0.60973E-08   -0.63577E-08   662   0.175E-03
  25 F= -.11618784E+04 E0= -.11618778E+04  d E =-.119169E-02  mag=     7.9919
       N       E                     dE             d eps       ncg     rms          rms(c)
DAV:   1    -0.116187781385E+04    0.60800E-03   -0.60369E-01  6424   0.911E-01    0.187E-01
RMM:   2    -0.116187911216E+04   -0.12983E-02   -0.15788E-02  6144   0.156E-01    0.140E-01
RMM:   3    -0.116187905631E+04    0.55856E-04   -0.62981E-04  5490   0.416E-02    0.908E-02
RMM:   4    -0.116187899846E+04    0.57843E-04   -0.21658E-04  3934   0.166E-02    0.504E-02
RMM:   5    -0.116187898968E+04    0.87868E-05   -0.53211E-05  3540   0.106E-02    0.215E-02
RMM:   6    -0.116187899164E+04   -0.19666E-05   -0.18734E-05  3447   0.633E-03    0.112E-02
RMM:   7    -0.116187899250E+04   -0.86095E-06   -0.95252E-06  3215   0.469E-03    0.808E-03
RMM:   8    -0.116187899312E+04   -0.61191E-06   -0.59735E-06  2910   0.356E-03
  26 F= -.11618790E+04 E0= -.11618784E+04  d E =-.571252E-03  mag=     7.9919
       N       E                     dE             d eps       ncg     rms          rms(c)
DAV:   1    -0.116187898658E+04    0.59230E-05   -0.10206E-02  6400   0.118E-01    0.244E-02
RMM:   2    -0.116187900532E+04   -0.18735E-04   -0.23721E-04  3780   0.210E-02    0.208E-02
RMM:   3    -0.116187900683E+04   -0.15166E-05   -0.19720E-05  3200   0.854E-03    0.110E-02
RMM:   4    -0.116187900644E+04    0.39574E-06   -0.50667E-06  2806   0.341E-03    0.938E-03
RMM:   5    -0.116187900586E+04    0.57711E-06   -0.10219E-06  1682   0.230E-03    0.327E-03
RMM:   6    -0.116187900586E+04   -0.18626E-08   -0.20946E-07   722   0.192E-03    0.118E-03
RMM:   7    -0.116187900588E+04   -0.16211E-07   -0.97125E-08   577   0.191E-03    0.651E-04
RMM:   8    -0.116187900588E+04   -0.62864E-08   -0.10616E-08   480   0.187E-03
  27 F= -.11618790E+04 E0= -.11618784E+04  d E =-.584020E-03  mag=     7.9919
       N       E                     dE             d eps       ncg     rms          rms(c)
DAV:   1    -0.116187876000E+04    0.24587E-03   -0.34811E-01  6408   0.693E-01    0.147E-01
RMM:   2    -0.116187951070E+04   -0.75069E-03   -0.88949E-03  6137   0.117E-01    0.106E-01
RMM:   3    -0.116187948107E+04    0.29627E-04   -0.33580E-04  4362   0.326E-02    0.685E-02
RMM:   4    -0.116187944796E+04    0.33108E-04   -0.13165E-04  3582   0.138E-02    0.505E-02
RMM:   5    -0.116187944685E+04    0.11149E-05   -0.34052E-05  3493   0.899E-03    0.290E-02
RMM:   6    -0.116187944819E+04   -0.13478E-05   -0.17900E-05  3400   0.550E-03    0.102E-02
RMM:   7    -0.116187944895E+04   -0.75245E-06   -0.79195E-06  3105   0.463E-03    0.106E-02
RMM:   8    -0.116187944943E+04   -0.48247E-06   -0.49506E-06  2385   0.297E-03
  28 F= -.11618794E+04 E0= -.11618789E+04  d E =-.443546E-03  mag=     7.9924
