       N       E                     dE             d eps       ncg     rms          rms(c)
DAV:   1     0.117890304460E+05    0.11789E+05   -0.41808E+05  9256   0.130E+03
DAV:   2     0.605799133351E+03   -0.11183E+05   -0.99857E+04  9240   0.372E+02
DAV:   3    -0.137369912689E+04   -0.19795E+04   -0.19103E+04  9896   0.163E+02
DAV:   4    -0.150418180894E+04   -0.13048E+03   -0.12827E+03 12360   0.429E+01
DAV:   5    -0.151192001346E+04   -0.77382E+01   -0.77098E+01 16464   0.910E+00    0.180E+02
RMM:   6    -0.116761169383E+04    0.34431E+03   -0.15671E+03  9376   0.336E+01    0.953E+01
RMM:   7    -0.115489478451E+04    0.12717E+02   -0.60008E+01  9569   0.967E+00    0.558E+01
RMM:   8    -0.116055753898E+04   -0.56628E+01   -0.29551E+01  9412   0.626E+00    0.161E+01
RMM:   9    -0.116149865307E+04   -0.94111E+00   -0.24435E+00 11003   0.149E+00    0.767E+00
RMM:  10    -0.116263078664E+04   -0.11321E+01   -0.20096E+00  9920   0.123E+00    0.527E+00
RMM:  11    -0.116377126232E+04   -0.11405E+01   -0.10590E+00  9866   0.919E-01    0.250E+00
RMM:  12    -0.116399598467E+04   -0.22472E+00   -0.30478E-01 10827   0.489E-01    0.162E+00
RMM:  13    -0.116407232417E+04   -0.76340E-01   -0.12726E-01 11173   0.310E-01    0.109E+00
RMM:  14    -0.116409867324E+04   -0.26349E-01   -0.49548E-02 11216   0.189E-01    0.378E-01
RMM:  15    -0.116410265475E+04   -0.39815E-02   -0.13638E-02 12198   0.942E-02    0.213E-01
RMM:  16    -0.116410347926E+04   -0.82450E-03   -0.42786E-03 12217   0.486E-02    0.753E-02
RMM:  17    -0.116410360912E+04   -0.12987E-03   -0.12253E-03 10279   0.249E-02    0.397E-02
RMM:  18    -0.116410367882E+04   -0.69692E-04   -0.49293E-04  7688   0.153E-02
   1 F= -.11641037E+04 E0= -.11641037E+04  d E =-.116410E+04  mag=     4.0058
       N       E                     dE             d eps       ncg     rms          rms(c)
DAV:   1    -0.116436130761E+04   -0.25770E+00   -0.11884E+02 10872   0.122E+01    0.370E+00
RMM:   2    -0.116471399247E+04   -0.35268E+00   -0.45586E+00  9216   0.233E+00    0.247E+00
RMM:   3    -0.116469424567E+04    0.19747E-01   -0.25200E-01  9682   0.623E-01    0.144E+00
RMM:   4    -0.116468147421E+04    0.12771E-01   -0.69310E-02 10220   0.250E-01    0.966E-01
RMM:   5    -0.116467985025E+04    0.16240E-02   -0.23647E-02 10225   0.141E-01    0.409E-01
RMM:   6    -0.116468052978E+04   -0.67953E-03   -0.45270E-03 12137   0.593E-02    0.277E-01
RMM:   7    -0.116468116404E+04   -0.63426E-03   -0.24784E-03 10812   0.423E-02    0.997E-02
RMM:   8    -0.116468125945E+04   -0.95417E-04   -0.73587E-04  9360   0.225E-02
   2 F= -.11646813E+04 E0= -.11646723E+04  d E =-.577581E+00  mag=     3.8783
       N       E                     dE             d eps       ncg     rms          rms(c)
DAV:   1    -0.116468738745E+04   -0.62234E-02   -0.52503E+00 10816   0.260E+00    0.872E-01
RMM:   2    -0.116470055004E+04   -0.13163E-01   -0.17160E-01  9216   0.477E-01    0.580E-01
RMM:   3    -0.116470017722E+04    0.37282E-03   -0.10055E-02  9347   0.122E-01    0.377E-01
RMM:   4    -0.116470029739E+04   -0.12016E-03   -0.43930E-03  9658   0.628E-02    0.226E-01
RMM:   5    -0.116470061377E+04   -0.31638E-03   -0.12367E-03  8876   0.346E-02    0.175E-01
RMM:   6    -0.116470082724E+04   -0.21347E-03   -0.60440E-04  8175   0.218E-02    0.115E-01
RMM:   7    -0.116470109920E+04   -0.27196E-03   -0.30157E-04  7241   0.167E-02    0.992E-02
RMM:   8    -0.116470154824E+04   -0.44904E-03   -0.50918E-04  7880   0.210E-02    0.952E-02
RMM:   9    -0.116470163683E+04   -0.88595E-04   -0.95717E-05  6081   0.994E-03
   3 F= -.11647016E+04 E0= -.11646882E+04  d E =-.597958E+00  mag=     3.6076
       N       E                     dE             d eps       ncg     rms          rms(c)
DAV:   1    -0.116478691923E+04   -0.85371E-01   -0.82385E+01  9888   0.105E+01    0.299E+00
RMM:   2    -0.116503974246E+04   -0.25282E+00   -0.25444E+00  9216   0.192E+00    0.210E+00
RMM:   3    -0.116503721569E+04    0.25268E-02   -0.12045E-01  9665   0.451E-01    0.132E+00
RMM:   4    -0.116503975623E+04   -0.25405E-02   -0.42495E-02 10391   0.205E-01    0.757E-01
RMM:   5    -0.116504100056E+04   -0.12443E-02   -0.13588E-02 10308   0.114E-01    0.239E-01
RMM:   6    -0.116504193863E+04   -0.93807E-03   -0.25693E-03 11927   0.475E-02    0.148E-01
RMM:   7    -0.116504237461E+04   -0.43598E-03   -0.11424E-03 11083   0.285E-02    0.769E-02
RMM:   8    -0.116504252019E+04   -0.14558E-03   -0.51928E-04  9243   0.194E-02    0.378E-02
RMM:   9    -0.116504255630E+04   -0.36112E-04   -0.20973E-04  7038   0.112E-02
   4 F= -.11650426E+04 E0= -.11650368E+04  d E =-.340919E+00  mag=     3.0525
       N       E                     dE             d eps       ncg     rms          rms(c)
DAV:   1    -0.116505176488E+04   -0.92447E-02   -0.18601E+00 10448   0.159E+00    0.395E-01
RMM:   2    -0.116505583696E+04   -0.40721E-02   -0.58230E-02  9216   0.287E-01    0.344E-01
RMM:   3    -0.116505544400E+04    0.39296E-03   -0.25621E-03  9671   0.656E-02    0.216E-01
RMM:   4    -0.116505525204E+04    0.19195E-03   -0.10884E-03  8842   0.309E-02    0.140E-01
RMM:   5    -0.116505513630E+04    0.11574E-03   -0.30828E-04  7235   0.174E-02    0.337E-02
RMM:   6    -0.116505514238E+04   -0.60860E-05   -0.47243E-05  5661   0.769E-03    0.215E-02
RMM:   7    -0.116505514559E+04   -0.32097E-05   -0.23134E-05  5443   0.539E-03    0.142E-02
RMM:   8    -0.116505514797E+04   -0.23789E-05   -0.13988E-05  5221   0.410E-03
   5 F= -.11650551E+04 E0= -.11650495E+04  d E =-.353511E+00  mag=     3.0172
       N       E                     dE             d eps       ncg     rms          rms(c)
DAV:   1    -0.116503643841E+04    0.18707E-01   -0.74694E+00  9768   0.319E+00    0.791E-01
RMM:   2    -0.116505150768E+04   -0.15069E-01   -0.21975E-01  9216   0.571E-01    0.697E-01
RMM:   3    -0.116504978524E+04    0.17224E-02   -0.93278E-03  9634   0.127E-01    0.436E-01
RMM:   4    -0.116504886623E+04    0.91901E-03   -0.40191E-03  9893   0.605E-02    0.283E-01
RMM:   5    -0.116504838385E+04    0.48237E-03   -0.12916E-03  9339   0.336E-02    0.669E-02
RMM:   6    -0.116504839224E+04   -0.83931E-05   -0.14227E-04  6356   0.121E-02    0.423E-02
RMM:   7    -0.116504839824E+04   -0.59936E-05   -0.65513E-05  5784   0.849E-03    0.245E-02
RMM:   8    -0.116504840267E+04   -0.44295E-05   -0.35294E-05  5509   0.614E-03
   6 F= -.11650484E+04 E0= -.11650425E+04  d E =-.346766E+00  mag=     2.9989
       N       E                     dE             d eps       ncg     rms          rms(c)
DAV:   1    -0.116505255622E+04   -0.41580E-02   -0.32150E+00  9808   0.209E+00    0.519E-01
RMM:   2    -0.116505896553E+04   -0.64093E-02   -0.94262E-02  9216   0.373E-01    0.457E-01
RMM:   3    -0.116505822570E+04    0.73983E-03   -0.39658E-03  9487   0.826E-02    0.287E-01
RMM:   4    -0.116505781948E+04    0.40621E-03   -0.17274E-03  9026   0.399E-02    0.184E-01
RMM:   5    -0.116505760428E+04    0.21520E-03   -0.51168E-04  7904   0.219E-02    0.440E-02
RMM:   6    -0.116505760840E+04   -0.41124E-05   -0.55114E-05  5691   0.839E-03    0.274E-02
RMM:   7    -0.116505761000E+04   -0.16073E-05   -0.25408E-05  5347   0.572E-03    0.172E-02
RMM:   8    -0.116505761184E+04   -0.18393E-05   -0.14090E-05  5120   0.426E-03
   7 F= -.11650576E+04 E0= -.11650519E+04  d E =-.355975E+00  mag=     3.0053
       N       E                     dE             d eps       ncg     rms          rms(c)
DAV:   1    -0.116504630530E+04    0.11305E-01   -0.38085E+01  9528   0.731E+00    0.163E+00
RMM:   2    -0.116513448288E+04   -0.88178E-01   -0.11379E+00  9216   0.133E+00    0.140E+00
RMM:   3    -0.116512960743E+04    0.48755E-02   -0.45375E-02  9998   0.284E-01    0.909E-01
RMM:   4    -0.116512718143E+04    0.24260E-02   -0.16530E-02 10286   0.123E-01    0.582E-01
RMM:   5    -0.116512508801E+04    0.20934E-02   -0.53940E-03 10154   0.684E-02    0.123E-01
RMM:   6    -0.116512511348E+04   -0.25477E-04   -0.80228E-04  9987   0.248E-02    0.821E-02
RMM:   7    -0.116512513086E+04   -0.17374E-04   -0.30616E-04  7580   0.151E-02    0.518E-02
RMM:   8    -0.116512515253E+04   -0.21679E-04   -0.17492E-04  6552   0.112E-02
   8 F= -.11651252E+04 E0= -.11651187E+04  d E =-.675407E-01  mag=     2.9842
       N       E                     dE             d eps       ncg     rms          rms(c)
DAV:   1    -0.116512513046E+04    0.39987E-06   -0.36914E-02 10576   0.229E-01    0.515E-02
RMM:   2    -0.116512522441E+04   -0.93952E-04   -0.11823E-03  9048   0.416E-02    0.456E-02
RMM:   3    -0.116512521741E+04    0.69995E-05   -0.45174E-05  5338   0.965E-03    0.310E-02
RMM:   4    -0.116512521782E+04   -0.40812E-06   -0.29867E-05  5205   0.567E-03    0.176E-02
RMM:   5    -0.116512521703E+04    0.79071E-06   -0.11898E-05  4939   0.389E-03    0.503E-03
RMM:   6    -0.116512521745E+04   -0.42154E-06   -0.45109E-06  3498   0.263E-03    0.342E-03
RMM:   7    -0.116512521767E+04   -0.22480E-06   -0.20464E-06  2796   0.230E-03    0.234E-03
RMM:   8    -0.116512521786E+04   -0.18667E-06   -0.12068E-06  2257   0.213E-03
   9 F= -.11651252E+04 E0= -.11651187E+04  d E =-.676060E-01  mag=     2.9822
       N       E                     dE             d eps       ncg     rms          rms(c)
DAV:   1    -0.116513075169E+04   -0.55340E-02   -0.33286E+01  9376   0.673E+00    0.154E+00
RMM:   2    -0.116520208149E+04   -0.71330E-01   -0.91727E-01  9218   0.117E+00    0.126E+00
RMM:   3    -0.116519672908E+04    0.53524E-02   -0.37839E-02  9966   0.264E-01    0.804E-01
RMM:   4    -0.116519369529E+04    0.30338E-02   -0.13984E-02 10452   0.112E-01    0.511E-01
RMM:   5    -0.116519203040E+04    0.16649E-02   -0.49587E-03 10442   0.624E-02    0.983E-02
RMM:   6    -0.116519203070E+04   -0.30150E-06   -0.63999E-04  9552   0.228E-02    0.698E-02
RMM:   7    -0.116519204560E+04   -0.14897E-04   -0.31808E-04  7386   0.143E-02    0.370E-02
RMM:   8    -0.116519206285E+04   -0.17253E-04   -0.18154E-04  6308   0.109E-02
  10 F= -.11651921E+04 E0= -.11651851E+04  d E =-.668450E-01  mag=     2.9820
       N       E                     dE             d eps       ncg     rms          rms(c)
DAV:   1    -0.116519051478E+04    0.15308E-02   -0.28197E+00  9728   0.196E+00    0.448E-01
RMM:   2    -0.116519662399E+04   -0.61092E-02   -0.78148E-02  9218   0.339E-01    0.368E-01
RMM:   3    -0.116519614875E+04    0.47523E-03   -0.32763E-03  9941   0.766E-02    0.233E-01
RMM:   4    -0.116519590129E+04    0.24746E-03   -0.13017E-03  9662   0.330E-02    0.150E-01
RMM:   5    -0.116519575864E+04    0.14265E-03   -0.44509E-04  8262   0.188E-02    0.294E-02
RMM:   6    -0.116519575817E+04    0.46693E-06   -0.53927E-05  5514   0.803E-03    0.201E-02
RMM:   7    -0.116519576058E+04   -0.24074E-05   -0.43551E-05  5374   0.618E-03    0.113E-02
RMM:   8    -0.116519576230E+04   -0.17228E-05   -0.19312E-05  5167   0.477E-03
  11 F= -.11651958E+04 E0= -.11651886E+04  d E =-.705444E-01  mag=     2.9826
       N       E                     dE             d eps       ncg     rms          rms(c)
DAV:   1    -0.116518019539E+04    0.15565E-01   -0.24966E+01  9520   0.572E+00    0.118E+00
RMM:   2    -0.116523544256E+04   -0.55247E-01   -0.67221E-01  9218   0.980E-01    0.957E-01
RMM:   3    -0.116523225040E+04    0.31922E-02   -0.27166E-02  9902   0.223E-01    0.602E-01
RMM:   4    -0.116523032652E+04    0.19239E-02   -0.93552E-03 10413   0.910E-02    0.387E-01
RMM:   5    -0.116522922708E+04    0.10994E-02   -0.31705E-03 10412   0.508E-02    0.808E-02
RMM:   6    -0.116522924575E+04   -0.18669E-04   -0.38299E-04  8355   0.183E-02    0.601E-02
RMM:   7    -0.116522925641E+04   -0.10662E-04   -0.19988E-04  6646   0.121E-02    0.371E-02
RMM:   8    -0.116522926776E+04   -0.11356E-04   -0.12713E-04  5765   0.100E-02
  12 F= -.11652293E+04 E0= -.11652228E+04  d E =-.335055E-01  mag=     2.9891
       N       E                     dE             d eps       ncg     rms          rms(c)
DAV:   1    -0.116522883246E+04    0.42395E-03   -0.46789E-01 10064   0.784E-01    0.160E-01
RMM:   2    -0.116522987446E+04   -0.10420E-02   -0.12661E-02  9213   0.134E-01    0.131E-01
RMM:   3    -0.116522980596E+04    0.68499E-04   -0.51563E-04  7961   0.307E-02    0.840E-02
RMM:   4    -0.116522976844E+04    0.37527E-04   -0.19315E-04  5917   0.140E-02    0.495E-02
RMM:   5    -0.116522975297E+04    0.15465E-04   -0.68524E-05  5483   0.858E-03    0.121E-02
RMM:   6    -0.116522975470E+04   -0.17337E-05   -0.20578E-05  5172   0.502E-03    0.879E-03
RMM:   7    -0.116522975569E+04   -0.98094E-06   -0.12764E-05  4743   0.375E-03    0.635E-03
RMM:   8    -0.116522975632E+04   -0.63470E-06   -0.76174E-06  4182   0.304E-03
  13 F= -.11652298E+04 E0= -.11652234E+04  d E =-.339940E-01  mag=     2.9902
       N       E                     dE             d eps       ncg     rms          rms(c)
DAV:   1    -0.116520013735E+04    0.29618E-01   -0.26444E+01  9544   0.580E+00    0.107E+00
RMM:   2    -0.116525890591E+04   -0.58769E-01   -0.66430E-01  9218   0.960E-01    0.768E-01
RMM:   3    -0.116525672824E+04    0.21777E-02   -0.26454E-02  9674   0.223E-01    0.495E-01
RMM:   4    -0.116525527093E+04    0.14573E-02   -0.87131E-03 10470   0.865E-02    0.264E-01
RMM:   5    -0.116525471646E+04    0.55446E-03   -0.21177E-03 10807   0.398E-02    0.721E-02
RMM:   6    -0.116525473769E+04   -0.21226E-04   -0.30036E-04  7646   0.153E-02    0.494E-02
RMM:   7    -0.116525475464E+04   -0.16948E-04   -0.18714E-04  6309   0.114E-02    0.208E-02
RMM:   8    -0.116525476031E+04   -0.56734E-05   -0.72745E-05  5814   0.849E-03
  14 F= -.11652548E+04 E0= -.11652485E+04  d E =-.250040E-01  mag=     2.9876
       N       E                     dE             d eps       ncg     rms          rms(c)
DAV:   1    -0.116525124331E+04    0.35113E-02   -0.25114E+00  9744   0.179E+00    0.330E-01
RMM:   2    -0.116525681440E+04   -0.55711E-02   -0.62975E-02  9212   0.295E-01    0.239E-01
RMM:   3    -0.116525659284E+04    0.22156E-03   -0.25977E-03  9697   0.688E-02    0.154E-01
RMM:   4    -0.116525645788E+04    0.13496E-03   -0.89482E-04  9248   0.272E-02    0.820E-02
RMM:   5    -0.116525640419E+04    0.53695E-04   -0.19659E-04  6746   0.133E-02    0.235E-02
RMM:   6    -0.116525640677E+04   -0.25814E-05   -0.27054E-05  5321   0.728E-03    0.142E-02
RMM:   7    -0.116525641054E+04   -0.37694E-05   -0.40229E-05  5284   0.588E-03    0.986E-03
RMM:   8    -0.116525641141E+04   -0.87662E-06   -0.15251E-05  4797   0.429E-03
  15 F= -.11652564E+04 E0= -.11652502E+04  d E =-.266551E-01  mag=     2.9866
       N       E                     dE             d eps       ncg     rms          rms(c)
DAV:   1    -0.116522701078E+04    0.29400E-01   -0.22989E+01  9504   0.541E+00    0.981E-01
RMM:   2    -0.116527663626E+04   -0.49625E-01   -0.57165E-01  9219   0.891E-01    0.731E-01
RMM:   3    -0.116527473982E+04    0.18964E-02   -0.23442E-02  9656   0.209E-01    0.467E-01
RMM:   4    -0.116527340810E+04    0.13317E-02   -0.75003E-03 10475   0.814E-02    0.284E-01
RMM:   5    -0.116527280190E+04    0.60620E-03   -0.22513E-03 10409   0.424E-02    0.703E-02
RMM:   6    -0.116527282866E+04   -0.26766E-04   -0.27396E-04  7370   0.155E-02    0.487E-02
RMM:   7    -0.116527284397E+04   -0.15312E-04   -0.14383E-04  6287   0.109E-02    0.290E-02
RMM:   8    -0.116527285570E+04   -0.11724E-04   -0.90851E-05  5810   0.895E-03
  16 F= -.11652729E+04 E0= -.11652653E+04  d E =-.164443E-01  mag=     2.9847
       N       E                     dE             d eps       ncg     rms          rms(c)
DAV:   1    -0.116527285266E+04   -0.86877E-05   -0.13644E-02 10432   0.132E-01    0.245E-02
RMM:   2    -0.116527288476E+04   -0.32101E-04   -0.36327E-04  6883   0.220E-02    0.211E-02
RMM:   3    -0.116527288444E+04    0.32243E-06   -0.23258E-05  5040   0.749E-03    0.126E-02
RMM:   4    -0.116527288596E+04   -0.15192E-05   -0.23248E-05  4882   0.420E-03    0.108E-02
RMM:   5    -0.116527288594E+04    0.23065E-07   -0.80965E-06  4022   0.335E-03    0.351E-03
RMM:   6    -0.116527288696E+04   -0.10257E-05   -0.10834E-05  3098   0.272E-03    0.196E-03
RMM:   7    -0.116527288735E+04   -0.38792E-06   -0.53601E-06  2340   0.244E-03    0.148E-03
RMM:   8    -0.116527288765E+04   -0.29687E-06   -0.38414E-06  1712   0.227E-03
  17 F= -.11652729E+04 E0= -.11652653E+04  d E =-.164762E-01  mag=     2.9859
       N       E                     dE             d eps       ncg     rms          rms(c)
DAV:   1    -0.116525955328E+04    0.13334E-01   -0.10777E+01  9608   0.371E+00    0.670E-01
RMM:   2    -0.116528330876E+04   -0.23755E-01   -0.27194E-01  9218   0.624E-01    0.512E-01
RMM:   3    -0.116528242242E+04    0.88633E-03   -0.10779E-02  9618   0.141E-01    0.331E-01
RMM:   4    -0.116528180401E+04    0.61841E-03   -0.35177E-03  9940   0.550E-02    0.207E-01
RMM:   5    -0.116528143581E+04    0.36820E-03   -0.10701E-03  9206   0.288E-02    0.418E-02
RMM:   6    -0.116528143635E+04   -0.54513E-06   -0.91823E-05  6023   0.105E-02    0.315E-02
RMM:   7    -0.116528143940E+04   -0.30435E-05   -0.61072E-05  5615   0.793E-03    0.153E-02
RMM:   8    -0.116528144197E+04   -0.25726E-05   -0.33751E-05  5437   0.639E-03
  18 F= -.11652814E+04 E0= -.11652740E+04  d E =-.855432E-02  mag=     2.9886
       N       E                     dE             d eps       ncg     rms          rms(c)
DAV:   1    -0.116528143041E+04    0.89899E-05   -0.13794E-02 10336   0.133E-01    0.235E-02
RMM:   2    -0.116528146139E+04   -0.30983E-04   -0.35552E-04  6778   0.224E-02    0.211E-02
RMM:   3    -0.116528146131E+04    0.75786E-07   -0.23239E-05  4975   0.718E-03    0.121E-02
RMM:   4    -0.116528146173E+04   -0.42013E-06   -0.15282E-05  4650   0.364E-03    0.107E-02
RMM:   5    -0.116528146113E+04    0.60332E-06   -0.56022E-06  3400   0.281E-03    0.241E-03
RMM:   6    -0.116528146154E+04   -0.40514E-06   -0.51193E-06  2391   0.231E-03    0.130E-03
RMM:   7    -0.116528146172E+04   -0.18475E-06   -0.27411E-06  1651   0.212E-03    0.798E-04
RMM:   8    -0.116528146187E+04   -0.14808E-06   -0.20199E-06  1278   0.203E-03
  19 F= -.11652815E+04 E0= -.11652740E+04  d E =-.857422E-02  mag=     2.9889
       N       E                     dE             d eps       ncg     rms          rms(c)
DAV:   1    -0.116527115115E+04    0.10311E-01   -0.80625E+00  9520   0.326E+00    0.586E-01
RMM:   2    -0.116528870301E+04   -0.17552E-01   -0.20347E-01  9219   0.543E-01    0.418E-01
RMM:   3    -0.116528800552E+04    0.69749E-03   -0.82680E-03  9519   0.126E-01    0.266E-01
RMM:   4    -0.116528753522E+04    0.47031E-03   -0.26450E-03 10064   0.479E-02    0.161E-01
RMM:   5    -0.116528731784E+04    0.21738E-03   -0.77322E-04  8976   0.250E-02    0.442E-02
RMM:   6    -0.116528732554E+04   -0.77002E-05   -0.77570E-05  5733   0.100E-02    0.311E-02
RMM:   7    -0.116528733332E+04   -0.77815E-05   -0.60913E-05  5570   0.751E-03    0.167E-02
RMM:   8    -0.116528733625E+04   -0.29305E-05   -0.28778E-05  5386   0.602E-03
  20 F= -.11652873E+04 E0= -.11652806E+04  d E =-.587438E-02  mag=     2.9912
       N       E                     dE             d eps       ncg     rms          rms(c)
DAV:   1    -0.116528733862E+04   -0.52976E-05   -0.35356E-03 10000   0.680E-02    0.123E-02
RMM:   2    -0.116528734732E+04   -0.87063E-05   -0.99538E-05  5136   0.119E-02    0.101E-02
RMM:   3    -0.116528734855E+04   -0.12268E-05   -0.16186E-05  4823   0.476E-03    0.610E-03
RMM:   4    -0.116528734895E+04   -0.40338E-06   -0.71063E-06  3298   0.275E-03    0.492E-03
RMM:   5    -0.116528734910E+04   -0.14862E-06   -0.44607E-06  2757   0.250E-03    0.142E-03
RMM:   6    -0.116528734932E+04   -0.21508E-06   -0.26379E-06  1754   0.228E-03    0.854E-04
RMM:   7    -0.116528734942E+04   -0.10013E-06   -0.14443E-06  1166   0.212E-03    0.604E-04
RMM:   8    -0.116528734950E+04   -0.79701E-07   -0.11193E-06  1036   0.206E-03
  21 F= -.11652873E+04 E0= -.11652807E+04  d E =-.588763E-02  mag=     2.9906
       N       E                     dE             d eps       ncg     rms          rms(c)
DAV:   1    -0.116527948981E+04    0.78596E-02   -0.60541E+00  9528   0.285E+00    0.506E-01
RMM:   2    -0.116529297933E+04   -0.13490E-01   -0.15193E-01  9222   0.470E-01    0.336E-01
RMM:   3    -0.116529252933E+04    0.45001E-03   -0.59287E-03  9337   0.110E-01    0.218E-01
RMM:   4    -0.116529220330E+04    0.32602E-03   -0.19951E-03  9918   0.412E-02    0.103E-01
RMM:   5    -0.116529212970E+04    0.73603E-04   -0.41836E-04  8305   0.182E-02    0.309E-02
RMM:   6    -0.116529213183E+04   -0.21331E-05   -0.44475E-05  5448   0.856E-03    0.194E-02
RMM:   7    -0.116529213647E+04   -0.46399E-05   -0.61435E-05  5413   0.703E-03    0.918E-03
RMM:   8    -0.116529213809E+04   -0.16140E-05   -0.24057E-05  5081   0.524E-03
  22 F= -.11652921E+04 E0= -.11652852E+04  d E =-.478859E-02  mag=     2.9900
       N       E                     dE             d eps       ncg     rms          rms(c)
DAV:   1    -0.116529159319E+04    0.54328E-03   -0.36582E-01  9648   0.700E-01    0.124E-01
RMM:   2    -0.116529242160E+04   -0.82841E-03   -0.93112E-03  9215   0.116E-01    0.828E-02
RMM:   3    -0.116529238699E+04    0.34617E-04   -0.34540E-04  6655   0.273E-02    0.544E-02
RMM:   4    -0.116529236755E+04    0.19440E-04   -0.12823E-04  5437   0.118E-02    0.245E-02
RMM:   5    -0.116529236625E+04    0.12995E-05   -0.36852E-05  5205   0.643E-03    0.808E-03
RMM:   6    -0.116529236752E+04   -0.12703E-05   -0.14250E-05  4983   0.409E-03    0.560E-03
RMM:   7    -0.116529236833E+04   -0.81409E-06   -0.93070E-06  4206   0.316E-03    0.324E-03
RMM:   8    -0.116529236883E+04   -0.49525E-06   -0.54169E-06  3489   0.261E-03
  23 F= -.11652924E+04 E0= -.11652853E+04  d E =-.501933E-02  mag=     2.9902
       N       E                     dE             d eps       ncg     rms          rms(c)
DAV:   1    -0.116528882689E+04    0.35414E-02   -0.30454E+00  9552   0.202E+00    0.371E-01
RMM:   2    -0.116529539519E+04   -0.65683E-02   -0.76702E-02  9219   0.336E-01    0.272E-01
RMM:   3    -0.116529511293E+04    0.28225E-03   -0.31241E-03  9304   0.782E-02    0.169E-01
RMM:   4    -0.116529493539E+04    0.17755E-03   -0.95838E-04  9409   0.289E-02    0.114E-01
RMM:   5    -0.116529484513E+04    0.90252E-04   -0.35114E-04  7800   0.176E-02    0.267E-02
RMM:   6    -0.116529484924E+04   -0.41095E-05   -0.43621E-05  5390   0.796E-03    0.179E-02
RMM:   7    -0.116529485263E+04   -0.33838E-05   -0.33332E-05  5275   0.593E-03    0.104E-02
RMM:   8    -0.116529485452E+04   -0.18897E-05   -0.18681E-05  5028   0.446E-03
  24 F= -.11652949E+04 E0= -.11652874E+04  d E =-.248569E-02  mag=     2.9884
       N       E                     dE             d eps       ncg     rms          rms(c)
DAV:   1    -0.116529485559E+04   -0.29600E-05   -0.40886E-04  8792   0.238E-02    0.481E-03
RMM:   2    -0.116529485722E+04   -0.16357E-05   -0.17492E-05  4922   0.512E-03    0.404E-03
RMM:   3    -0.116529485760E+04   -0.37930E-06   -0.39684E-06  2719   0.250E-03    0.282E-03
RMM:   4    -0.116529485773E+04   -0.13020E-06   -0.15709E-06  1584   0.212E-03    0.224E-03
RMM:   5    -0.116529485782E+04   -0.89916E-07   -0.10659E-06  1512   0.206E-03    0.704E-04
RMM:   6    -0.116529485786E+04   -0.41633E-07   -0.45759E-07   948   0.191E-03    0.482E-04
RMM:   7    -0.116529485789E+04   -0.23501E-07   -0.26687E-07   864   0.188E-03    0.372E-04
RMM:   8    -0.116529485790E+04   -0.11380E-07   -0.14777E-07   770   0.186E-03
  25 F= -.11652949E+04 E0= -.11652874E+04  d E =-.248907E-02  mag=     2.9889
       N       E                     dE             d eps       ncg     rms          rms(c)
DAV:   1    -0.116529280744E+04    0.20504E-02   -0.15806E+00  9632   0.146E+00    0.276E-01
RMM:   2    -0.116529625896E+04   -0.34515E-02   -0.40540E-02  9220   0.244E-01    0.200E-01
RMM:   3    -0.116529612181E+04    0.13715E-03   -0.16602E-03  9224   0.572E-02    0.125E-01
RMM:   4    -0.116529604032E+04    0.81493E-04   -0.52323E-04  8593   0.217E-02    0.806E-02
RMM:   5    -0.116529599127E+04    0.49051E-04   -0.14594E-04  6187   0.128E-02    0.199E-02
RMM:   6    -0.116529599591E+04   -0.46468E-05   -0.36626E-05  5240   0.678E-03    0.116E-02
RMM:   7    -0.116529599759E+04   -0.16789E-05   -0.19461E-05  5077   0.509E-03    0.991E-03
RMM:   8    -0.116529599861E+04   -0.10139E-05   -0.11591E-05  4370   0.355E-03
  26 F= -.11652960E+04 E0= -.11652886E+04  d E =-.114071E-02  mag=     2.9885
       N       E                     dE             d eps       ncg     rms          rms(c)
DAV:   1    -0.116529598869E+04    0.89043E-05   -0.57671E-03  9984   0.884E-02    0.171E-02
RMM:   2    -0.116529599937E+04   -0.10678E-04   -0.13036E-04  5256   0.149E-02    0.128E-02
RMM:   3    -0.116529600034E+04   -0.97157E-06   -0.10521E-05  4642   0.511E-03    0.725E-03
RMM:   4    -0.116529600005E+04    0.28728E-06   -0.70643E-07  2342   0.207E-03    0.571E-03
RMM:   5    -0.116529599970E+04    0.35533E-06   -0.38724E-07  1642   0.190E-03    0.169E-03
RMM:   6    -0.116529599976E+04   -0.59474E-07   -0.83556E-07  1525   0.193E-03    0.772E-04
RMM:   7    -0.116529599976E+04   -0.33615E-08   -0.27075E-08   726   0.170E-03    0.556E-04
RMM:   8    -0.116529599976E+04   -0.18626E-08   -0.79084E-09   658   0.169E-03
  27 F= -.11652960E+04 E0= -.11652886E+04  d E =-.114186E-02  mag=     2.9884
       N       E                     dE             d eps       ncg     rms          rms(c)
DAV:   1    -0.116529509002E+04    0.90974E-03   -0.89909E-01  9632   0.110E+00    0.212E-01
RMM:   2    -0.116529702345E+04   -0.19334E-02   -0.22723E-02  9200   0.182E-01    0.162E-01
RMM:   3    -0.116529694023E+04    0.83221E-04   -0.90589E-04  8757   0.428E-02    0.102E-01
RMM:   4    -0.116529689238E+04    0.47845E-04   -0.29577E-04  7019   0.167E-02    0.629E-02
RMM:   5    -0.116529686269E+04    0.29693E-04   -0.82243E-05  5594   0.991E-03    0.124E-02
RMM:   6    -0.116529686531E+04   -0.26153E-05   -0.22492E-05  5155   0.533E-03    0.889E-03
RMM:   7    -0.116529686630E+04   -0.99989E-06   -0.10706E-05  4464   0.379E-03    0.552E-03
RMM:   8    -0.116529686708E+04   -0.77151E-06   -0.70685E-06  3998   0.295E-03
  28 F= -.11652969E+04 E0= -.11652895E+04  d E =-.867316E-03  mag=     2.9890
