       N       E                     dE             d eps       ncg     rms          rms(c)
DAV:   1     0.118997419808E+05    0.11900E+05   -0.42040E+05  6168   0.131E+03
DAV:   2     0.641929853883E+03   -0.11258E+05   -0.10053E+05  6160   0.375E+02
DAV:   3    -0.136618373719E+04   -0.20081E+04   -0.19355E+04  6600   0.165E+02
DAV:   4    -0.150031988478E+04   -0.13414E+03   -0.13193E+03  8136   0.441E+01
DAV:   5    -0.150868353650E+04   -0.83637E+01   -0.83256E+01 11120   0.101E+01    0.179E+02
RMM:   6    -0.116489588423E+04    0.34379E+03   -0.15844E+03  6256   0.344E+01    0.107E+02
RMM:   7    -0.115077852463E+04    0.14117E+02   -0.59991E+01  6399   0.110E+01    0.627E+01
RMM:   8    -0.115447717328E+04   -0.36986E+01   -0.21403E+01  6784   0.529E+00    0.268E+01
RMM:   9    -0.115785929843E+04   -0.33821E+01   -0.57120E+00  6540   0.279E+00    0.125E+01
RMM:  10    -0.115872175701E+04   -0.86246E+00   -0.21602E+00  6844   0.152E+00    0.935E+00
RMM:  11    -0.115980127039E+04   -0.10795E+01   -0.13137E+00  7345   0.983E-01    0.628E+00
RMM:  12    -0.116091087457E+04   -0.11096E+01   -0.93743E-01  6731   0.858E-01    0.364E+00
RMM:  13    -0.116126065301E+04   -0.34978E+00   -0.44707E-01  7115   0.646E-01    0.193E+00
RMM:  14    -0.116137113304E+04   -0.11048E+00   -0.14570E-01  7260   0.336E-01    0.138E+00
RMM:  15    -0.116145475638E+04   -0.83623E-01   -0.11927E-01  6688   0.302E-01    0.746E-01
RMM:  16    -0.116147604606E+04   -0.21290E-01   -0.30649E-02  7298   0.170E-01    0.501E-01
RMM:  17    -0.116148334414E+04   -0.72981E-02   -0.91971E-03  7799   0.844E-02    0.386E-01
RMM:  18    -0.116149131060E+04   -0.79665E-02   -0.75806E-03  6762   0.834E-02    0.197E-01
RMM:  19    -0.116149485777E+04   -0.35472E-02   -0.43369E-03  6296   0.595E-02    0.142E-01
RMM:  20    -0.116149635013E+04   -0.14924E-02   -0.20706E-03  5916   0.389E-02    0.111E-01
RMM:  21    -0.116149742673E+04   -0.10766E-02   -0.17160E-03  5611   0.373E-02    0.622E-02
RMM:  22    -0.116149781916E+04   -0.39243E-03   -0.10632E-03  5319   0.283E-02    0.281E-02
RMM:  23    -0.116149786662E+04   -0.47461E-04   -0.23671E-04  4471   0.136E-02
   1 F= -.11614979E+04 E0= -.11614979E+04  d E =-.116150E+04  mag=     6.0007
       N       E                     dE             d eps       ncg     rms          rms(c)
DAV:   1    -0.116160337383E+04   -0.10555E+00   -0.22547E+02  7088   0.168E+01    0.609E+00
RMM:   2    -0.116228519260E+04   -0.68182E+00   -0.89906E+00  6144   0.364E+00    0.570E+00
RMM:   3    -0.116225878967E+04    0.26403E-01   -0.53334E-01  6631   0.116E+00    0.430E+00
RMM:   4    -0.116221906879E+04    0.39721E-01   -0.18356E-01  6919   0.487E-01    0.268E+00
RMM:   5    -0.116221183228E+04    0.72365E-02   -0.67548E-02  6932   0.277E-01    0.817E-01
RMM:   6    -0.116221460250E+04   -0.27702E-02   -0.29528E-02  7183   0.204E-01    0.779E-01
RMM:   7    -0.116221533068E+04   -0.72817E-03   -0.51386E-03  8624   0.644E-02    0.397E-01
RMM:   8    -0.116221662281E+04   -0.12921E-02   -0.59443E-03  6827   0.784E-02    0.165E-01
RMM:   9    -0.116221669924E+04   -0.76437E-04   -0.84916E-04  5911   0.325E-02
   2 F= -.11622167E+04 E0= -.11622167E+04  d E =-.718833E+00  mag=     6.0000
       N       E                     dE             d eps       ncg     rms          rms(c)
DAV:   1    -0.116222432888E+04   -0.77061E-02   -0.29967E+00  7040   0.199E+00    0.731E-01
RMM:   2    -0.116223152722E+04   -0.71983E-02   -0.10663E-01  6141   0.413E-01    0.722E-01
RMM:   3    -0.116223101317E+04    0.51405E-03   -0.57833E-03  6321   0.129E-01    0.524E-01
RMM:   4    -0.116223049191E+04    0.52126E-03   -0.34260E-03  6148   0.669E-02    0.272E-01
RMM:   5    -0.116223042387E+04    0.68039E-04   -0.10115E-03  5544   0.372E-02    0.973E-02
RMM:   6    -0.116223043514E+04   -0.11272E-04   -0.10350E-04  3932   0.155E-02    0.724E-02
RMM:   7    -0.116223046843E+04   -0.33288E-04   -0.49538E-05  3699   0.833E-03    0.411E-02
RMM:   8    -0.116223052806E+04   -0.59631E-04   -0.59106E-05  3689   0.998E-03
   3 F= -.11622305E+04 E0= -.11622305E+04  d E =-.732661E+00  mag=     6.0000
       N       E                     dE             d eps       ncg     rms          rms(c)
DAV:   1    -0.116228970895E+04   -0.59241E-01   -0.99364E+01  6432   0.116E+01    0.281E+00
RMM:   2    -0.116252122365E+04   -0.23151E+00   -0.29567E+00  6168   0.218E+00    0.273E+00
RMM:   3    -0.116251617212E+04    0.50515E-02   -0.14506E-01  6567   0.680E-01    0.195E+00
RMM:   4    -0.116250876280E+04    0.74093E-02   -0.47427E-02  7216   0.235E-01    0.129E+00
RMM:   5    -0.116250159033E+04    0.71725E-02   -0.21469E-02  6844   0.155E-01    0.254E-01
RMM:   6    -0.116250169517E+04   -0.10484E-03   -0.26884E-03  7870   0.607E-02    0.177E-01
RMM:   7    -0.116250163553E+04    0.59635E-04   -0.11245E-03  7332   0.275E-02    0.106E-01
RMM:   8    -0.116250168281E+04   -0.47275E-04   -0.49278E-04  5534   0.239E-02
   4 F= -.11625017E+04 E0= -.11625017E+04  d E =-.271155E+00  mag=     6.0000
       N       E                     dE             d eps       ncg     rms          rms(c)
DAV:   1    -0.116250111981E+04    0.51572E-03   -0.52650E+00  6864   0.267E+00    0.644E-01
RMM:   2    -0.116251327488E+04   -0.12155E-01   -0.15546E-01  6162   0.496E-01    0.618E-01
RMM:   3    -0.116251298929E+04    0.28559E-03   -0.78096E-03  6497   0.157E-01    0.441E-01
RMM:   4    -0.116251265175E+04    0.33754E-03   -0.29241E-03  6960   0.565E-02    0.276E-01
RMM:   5    -0.116251232278E+04    0.32898E-03   -0.11823E-03  6092   0.361E-02    0.556E-02
RMM:   6    -0.116251233739E+04   -0.14616E-04   -0.12132E-04  4086   0.158E-02    0.413E-02
RMM:   7    -0.116251236130E+04   -0.23905E-04   -0.73774E-05  3863   0.101E-02    0.275E-02
RMM:   8    -0.116251238929E+04   -0.27992E-04   -0.41565E-05  3700   0.908E-03
   5 F= -.11625124E+04 E0= -.11625124E+04  d E =-.281861E+00  mag=     6.0000
       N       E                     dE             d eps       ncg     rms          rms(c)
DAV:   1    -0.116249153402E+04    0.20827E-01   -0.60343E+01  6368   0.909E+00    0.232E+00
RMM:   2    -0.116262438064E+04   -0.13285E+00   -0.17659E+00  6182   0.169E+00    0.212E+00
RMM:   3    -0.116261842100E+04    0.59596E-02   -0.87085E-02  6509   0.539E-01    0.137E+00
RMM:   4    -0.116261143442E+04    0.69866E-02   -0.34398E-02  7287   0.200E-01    0.751E-01
RMM:   5    -0.116260877581E+04    0.26586E-02   -0.96735E-03  6988   0.103E-01    0.184E-01
RMM:   6    -0.116260885937E+04   -0.83559E-04   -0.12820E-03  7544   0.397E-02    0.114E-01
RMM:   7    -0.116260890881E+04   -0.49438E-04   -0.51189E-04  5898   0.200E-02    0.729E-02
RMM:   8    -0.116260900527E+04   -0.96467E-04   -0.30716E-04  4775   0.192E-02
   6 F= -.11626090E+04 E0= -.11626090E+04  d E =-.966160E-01  mag=     5.9999
       N       E                     dE             d eps       ncg     rms          rms(c)
DAV:   1    -0.116260916558E+04   -0.25677E-03   -0.70287E-01  6936   0.982E-01    0.252E-01
RMM:   2    -0.116261072338E+04   -0.15578E-02   -0.20381E-02  6167   0.182E-01    0.226E-01
RMM:   3    -0.116261066834E+04    0.55040E-04   -0.96576E-04  5881   0.577E-02    0.145E-01
RMM:   4    -0.116261060631E+04    0.62034E-04   -0.31886E-04  4688   0.223E-02    0.766E-02
RMM:   5    -0.116261060392E+04    0.23864E-05   -0.10228E-04  3907   0.154E-02    0.289E-02
RMM:   6    -0.116261061558E+04   -0.11656E-04   -0.24347E-05  3519   0.758E-03    0.195E-02
RMM:   7    -0.116261062665E+04   -0.11070E-04   -0.10962E-05  3226   0.492E-03    0.151E-02
RMM:   8    -0.116261064822E+04   -0.21578E-04   -0.13999E-05  3287   0.483E-03
   7 F= -.11626106E+04 E0= -.11626106E+04  d E =-.982589E-01  mag=     5.9999
       N       E                     dE             d eps       ncg     rms          rms(c)
DAV:   1    -0.116260369542E+04    0.69312E-02   -0.32290E+01  6304   0.664E+00    0.152E+00
RMM:   2    -0.116267671287E+04   -0.73017E-01   -0.82677E-01  6194   0.115E+00    0.108E+00
RMM:   3    -0.116267652475E+04    0.18812E-03   -0.43115E-02  6367   0.401E-01    0.686E-01
RMM:   4    -0.116267406355E+04    0.24612E-02   -0.14745E-02  7599   0.130E-01    0.385E-01
RMM:   5    -0.116267358551E+04    0.47804E-03   -0.35894E-03  7406   0.572E-02    0.116E-01
RMM:   6    -0.116267362277E+04   -0.37258E-04   -0.52935E-04  5826   0.254E-02    0.702E-02
RMM:   7    -0.116267366760E+04   -0.44833E-04   -0.27119E-04  4742   0.160E-02    0.367E-02
RMM:   8    -0.116267370619E+04   -0.38594E-04   -0.15619E-04  4258   0.138E-02
   8 F= -.11626737E+04 E0= -.11626737E+04  d E =-.630580E-01  mag=     5.9999
       N       E                     dE             d eps       ncg     rms          rms(c)
DAV:   1    -0.116266552864E+04    0.81390E-02   -0.69484E+00  6456   0.308E+00    0.703E-01
RMM:   2    -0.116268123445E+04   -0.15706E-01   -0.17801E-01  6195   0.530E-01    0.502E-01
RMM:   3    -0.116268116637E+04    0.68084E-04   -0.93506E-03  6342   0.184E-01    0.318E-01
RMM:   4    -0.116268064235E+04    0.52401E-03   -0.33026E-03  7601   0.606E-02    0.175E-01
RMM:   5    -0.116268057357E+04    0.68781E-04   -0.86184E-04  6300   0.276E-02    0.539E-02
RMM:   6    -0.116268058516E+04   -0.11590E-04   -0.12095E-04  4033   0.143E-02    0.336E-02
RMM:   7    -0.116268060805E+04   -0.22882E-04   -0.83246E-05  3793   0.110E-02    0.197E-02
RMM:   8    -0.116268062691E+04   -0.18863E-04   -0.48476E-05  3630   0.884E-03
   9 F= -.11626806E+04 E0= -.11626806E+04  d E =-.699787E-01  mag=     5.9999
       N       E                     dE             d eps       ncg     rms          rms(c)
DAV:   1    -0.116266095471E+04    0.19653E-01   -0.26855E+01  6368   0.597E+00    0.144E+00
RMM:   2    -0.116272682847E+04   -0.65874E-01   -0.68566E-01  6240   0.103E+00    0.103E+00
RMM:   3    -0.116272764568E+04   -0.81721E-03   -0.34990E-02  6487   0.352E-01    0.630E-01
RMM:   4    -0.116272585602E+04    0.17897E-02   -0.10226E-02  7898   0.110E-01    0.346E-01
RMM:   5    -0.116272557363E+04    0.28240E-03   -0.29240E-03  7443   0.494E-02    0.896E-02
RMM:   6    -0.116272559630E+04   -0.22671E-04   -0.42766E-04  5436   0.232E-02    0.480E-02
RMM:   7    -0.116272562507E+04   -0.28769E-04   -0.26610E-04  4554   0.144E-02    0.286E-02
RMM:   8    -0.116272564562E+04   -0.20554E-04   -0.15162E-04  4055   0.128E-02
  10 F= -.11627256E+04 E0= -.11627256E+04  d E =-.450187E-01  mag=     5.9999
       N       E                     dE             d eps       ncg     rms          rms(c)
DAV:   1    -0.116271431709E+04    0.11308E-01   -0.72331E+00  6432   0.310E+00    0.746E-01
RMM:   2    -0.116273210773E+04   -0.17791E-01   -0.18486E-01  6240   0.534E-01    0.534E-01
RMM:   3    -0.116273226470E+04   -0.15697E-03   -0.93818E-03  6452   0.180E-01    0.323E-01
RMM:   4    -0.116273178870E+04    0.47600E-03   -0.27987E-03  7736   0.570E-02    0.175E-01
RMM:   5    -0.116273172183E+04    0.66875E-04   -0.88858E-04  6431   0.269E-02    0.424E-02
RMM:   6    -0.116273172355E+04   -0.17267E-05   -0.11890E-04  3996   0.141E-02    0.247E-02
RMM:   7    -0.116273173290E+04   -0.93435E-05   -0.78214E-05  3738   0.101E-02    0.146E-02
RMM:   8    -0.116273173953E+04   -0.66287E-05   -0.48914E-05  3607   0.895E-03
  11 F= -.11627317E+04 E0= -.11627317E+04  d E =-.511126E-01  mag=     5.9998
       N       E                     dE             d eps       ncg     rms          rms(c)
DAV:   1    -0.116272325459E+04    0.84783E-02   -0.14165E+01  6336   0.432E+00    0.107E+00
RMM:   2    -0.116275757418E+04   -0.34320E-01   -0.35857E-01  6242   0.743E-01    0.792E-01
RMM:   3    -0.116275783699E+04   -0.26281E-03   -0.17698E-02  6471   0.248E-01    0.482E-01
RMM:   4    -0.116275683909E+04    0.99790E-03   -0.60768E-03  7663   0.846E-02    0.268E-01
RMM:   5    -0.116275669194E+04    0.14715E-03   -0.14025E-03  7191   0.353E-02    0.885E-02
RMM:   6    -0.116275670572E+04   -0.13776E-04   -0.22051E-04  4646   0.164E-02    0.405E-02
RMM:   7    -0.116275671579E+04   -0.10071E-04   -0.12724E-04  3964   0.126E-02    0.308E-02
RMM:   8    -0.116275672297E+04   -0.71776E-05   -0.78464E-05  3720   0.104E-02
  12 F= -.11627567E+04 E0= -.11627567E+04  d E =-.249834E-01  mag=     5.9998
       N       E                     dE             d eps       ncg     rms          rms(c)
DAV:   1    -0.116275363258E+04    0.30832E-02   -0.23742E+00  6512   0.177E+00    0.435E-01
RMM:   2    -0.116275941798E+04   -0.57854E-02   -0.60500E-02  6248   0.304E-01    0.325E-01
RMM:   3    -0.116275944573E+04   -0.27744E-04   -0.30312E-03  6397   0.101E-01    0.197E-01
RMM:   4    -0.116275927274E+04    0.17299E-03   -0.10013E-03  6399   0.351E-02    0.104E-01
RMM:   5    -0.116275925155E+04    0.21191E-04   -0.24172E-04  4621   0.191E-02    0.329E-02
RMM:   6    -0.116275925592E+04   -0.43695E-05   -0.54004E-05  3626   0.117E-02    0.160E-02
RMM:   7    -0.116275925970E+04   -0.37812E-05   -0.42062E-05  3534   0.875E-03    0.161E-02
RMM:   8    -0.116275926195E+04   -0.22475E-05   -0.25480E-05  3423   0.735E-03
  13 F= -.11627593E+04 E0= -.11627592E+04  d E =-.275224E-01  mag=     5.9998
       N       E                     dE             d eps       ncg     rms          rms(c)
DAV:   1    -0.116275343241E+04    0.58273E-02   -0.11039E+01  6368   0.384E+00    0.848E-01
RMM:   2    -0.116277857286E+04   -0.25140E-01   -0.27401E-01  6222   0.647E-01    0.614E-01
RMM:   3    -0.116277845517E+04    0.11769E-03   -0.13577E-02  6343   0.221E-01    0.390E-01
RMM:   4    -0.116277783417E+04    0.62100E-03   -0.45707E-03  7862   0.724E-02    0.208E-01
RMM:   5    -0.116277779147E+04    0.42692E-04   -0.10107E-03  7128   0.295E-02    0.673E-02
RMM:   6    -0.116277780386E+04   -0.12381E-04   -0.18784E-04  4323   0.152E-02    0.270E-02
RMM:   7    -0.116277781288E+04   -0.90265E-05   -0.11301E-04  3855   0.123E-02    0.222E-02
RMM:   8    -0.116277781938E+04   -0.64948E-05   -0.72291E-05  3667   0.979E-03
  14 F= -.11627778E+04 E0= -.11627778E+04  d E =-.185574E-01  mag=     5.9999
       N       E                     dE             d eps       ncg     rms          rms(c)
DAV:   1    -0.116276886185E+04    0.89510E-02   -0.60146E+00  6392   0.284E+00    0.627E-01
RMM:   2    -0.116278260864E+04   -0.13747E-01   -0.14990E-01  6230   0.477E-01    0.455E-01
RMM:   3    -0.116278251461E+04    0.94034E-04   -0.73979E-03  6355   0.162E-01    0.289E-01
RMM:   4    -0.116278217413E+04    0.34048E-03   -0.25465E-03  7682   0.539E-02    0.150E-01
RMM:   5    -0.116278215574E+04    0.18382E-04   -0.56795E-04  6019   0.228E-02    0.483E-02
RMM:   6    -0.116278216176E+04   -0.60134E-05   -0.10054E-04  3848   0.130E-02    0.192E-02
RMM:   7    -0.116278216890E+04   -0.71436E-05   -0.84551E-05  3720   0.110E-02    0.158E-02
RMM:   8    -0.116278217279E+04   -0.38902E-05   -0.44811E-05  3562   0.839E-03
  15 F= -.11627822E+04 E0= -.11627822E+04  d E =-.229108E-01  mag=     6.0000
       N       E                     dE             d eps       ncg     rms          rms(c)
DAV:   1    -0.116276591475E+04    0.16254E-01   -0.13986E+01  6352   0.434E+00    0.854E-01
RMM:   2    -0.116279642901E+04   -0.30514E-01   -0.35119E-01  6167   0.731E-01    0.654E-01
RMM:   3    -0.116279574010E+04    0.68890E-03   -0.16896E-02  6318   0.243E-01    0.422E-01
RMM:   4    -0.116279504452E+04    0.69558E-03   -0.61049E-03  7811   0.805E-02    0.229E-01
RMM:   5    -0.116279477964E+04    0.26488E-03   -0.16189E-03  7389   0.368E-02    0.546E-02
RMM:   6    -0.116279479324E+04   -0.13601E-04   -0.25527E-04  4831   0.175E-02    0.392E-02
RMM:   7    -0.116279481244E+04   -0.19200E-04   -0.15328E-04  4092   0.130E-02    0.231E-02
RMM:   8    -0.116279482691E+04   -0.14469E-04   -0.89971E-05  3787   0.106E-02
  16 F= -.11627948E+04 E0= -.11627948E+04  d E =-.126541E-01  mag=     6.0000
       N       E                     dE             d eps       ncg     rms          rms(c)
DAV:   1    -0.116279449696E+04    0.31549E-03   -0.25634E-01  6864   0.588E-01    0.115E-01
RMM:   2    -0.116279508812E+04   -0.59116E-03   -0.67274E-03  6283   0.100E-01    0.896E-02
RMM:   3    -0.116279506456E+04    0.23562E-04   -0.30554E-04  4381   0.320E-02    0.589E-02
RMM:   4    -0.116279505644E+04    0.81144E-05   -0.12026E-04  3664   0.129E-02    0.324E-02
RMM:   5    -0.116279505796E+04   -0.15148E-05   -0.41460E-05  3534   0.904E-03    0.108E-02
RMM:   6    -0.116279506145E+04   -0.34936E-05   -0.19420E-05  3426   0.620E-03    0.903E-03
RMM:   7    -0.116279506415E+04   -0.27004E-05   -0.12851E-05  3215   0.500E-03    0.696E-03
RMM:   8    -0.116279506782E+04   -0.36671E-05   -0.10265E-05  3007   0.433E-03
  17 F= -.11627951E+04 E0= -.11627951E+04  d E =-.128950E-01  mag=     6.0000
       N       E                     dE             d eps       ncg     rms          rms(c)
DAV:   1    -0.116278525501E+04    0.98091E-02   -0.89124E+00  6360   0.345E+00    0.650E-01
RMM:   2    -0.116280400872E+04   -0.18754E-01   -0.22236E-01  6149   0.580E-01    0.487E-01
RMM:   3    -0.116280345077E+04    0.55795E-03   -0.10160E-02  6208   0.183E-01    0.326E-01
RMM:   4    -0.116280284275E+04    0.60801E-03   -0.37653E-03  7466   0.646E-02    0.186E-01
RMM:   5    -0.116280272281E+04    0.11995E-03   -0.86454E-04  6501   0.295E-02    0.551E-02
RMM:   6    -0.116280273858E+04   -0.15773E-04   -0.15260E-04  4125   0.144E-02    0.340E-02
RMM:   7    -0.116280275339E+04   -0.14808E-04   -0.80124E-05  3711   0.121E-02    0.256E-02
RMM:   8    -0.116280277063E+04   -0.17239E-04   -0.58622E-05  3650   0.961E-03
  18 F= -.11628028E+04 E0= -.11628028E+04  d E =-.770281E-02  mag=     5.9999
       N       E                     dE             d eps       ncg     rms          rms(c)
DAV:   1    -0.116280278103E+04   -0.27635E-04   -0.54647E-03  6816   0.863E-02    0.183E-02
RMM:   2    -0.116280279984E+04   -0.18817E-04   -0.15433E-04  3625   0.161E-02    0.182E-02
RMM:   3    -0.116280280478E+04   -0.49417E-05   -0.23326E-05  3322   0.796E-03    0.128E-02
RMM:   4    -0.116280280986E+04   -0.50771E-05   -0.13928E-05  3148   0.474E-03    0.138E-02
RMM:   5    -0.116280281727E+04   -0.74108E-05   -0.98472E-06  2699   0.452E-03    0.905E-03
RMM:   6    -0.116280282464E+04   -0.73649E-05   -0.89576E-06  2665   0.382E-03    0.903E-03
RMM:   7    -0.116280282943E+04   -0.47958E-05   -0.53447E-06  2078   0.321E-03    0.741E-03
RMM:   8    -0.116280283743E+04   -0.79939E-05   -0.74703E-06  2228   0.367E-03
  19 F= -.11628028E+04 E0= -.11628028E+04  d E =-.776961E-02  mag=     5.9999
       N       E                     dE             d eps       ncg     rms          rms(c)
DAV:   1    -0.116279806934E+04    0.47601E-02   -0.49864E+00  6368   0.260E+00    0.502E-01
RMM:   2    -0.116280909295E+04   -0.11024E-01   -0.12362E-01  6152   0.433E-01    0.364E-01
RMM:   3    -0.116280887080E+04    0.22215E-03   -0.56793E-03  6131   0.140E-01    0.235E-01
RMM:   4    -0.116280859248E+04    0.27833E-03   -0.19243E-03  7188   0.465E-02    0.124E-01
RMM:   5    -0.116280856313E+04    0.29351E-04   -0.50568E-04  5615   0.229E-02    0.328E-02
RMM:   6    -0.116280857407E+04   -0.10940E-04   -0.70791E-05  3671   0.124E-02    0.212E-02
RMM:   7    -0.116280859055E+04   -0.16480E-04   -0.57427E-05  3630   0.945E-03    0.151E-02
RMM:   8    -0.116280860810E+04   -0.17555E-04   -0.38612E-05  3521   0.840E-03
  20 F= -.11628086E+04 E0= -.11628086E+04  d E =-.577067E-02  mag=     6.0000
       N       E                     dE             d eps       ncg     rms          rms(c)
DAV:   1    -0.116280756423E+04    0.10263E-02   -0.76678E-01  6400   0.102E+00    0.197E-01
RMM:   2    -0.116280929022E+04   -0.17260E-02   -0.19220E-02  6206   0.171E-01    0.143E-01
RMM:   3    -0.116280925879E+04    0.31438E-04   -0.91589E-04  5856   0.556E-02    0.933E-02
RMM:   4    -0.116280923013E+04    0.28661E-04   -0.29580E-04  4378   0.192E-02    0.498E-02
RMM:   5    -0.116280924076E+04   -0.10633E-04   -0.83139E-05  3639   0.131E-02    0.166E-02
RMM:   6    -0.116280925201E+04   -0.11249E-04   -0.31441E-05  3501   0.833E-03    0.144E-02
RMM:   7    -0.116280926255E+04   -0.10539E-04   -0.20642E-05  3365   0.641E-03    0.121E-02
RMM:   8    -0.116280927964E+04   -0.17092E-04   -0.20016E-05  3338   0.589E-03
  21 F= -.11628093E+04 E0= -.11628093E+04  d E =-.644221E-02  mag=     6.0000
       N       E                     dE             d eps       ncg     rms          rms(c)
DAV:   1    -0.116280453024E+04    0.47323E-02   -0.38144E+00  6336   0.228E+00    0.476E-01
RMM:   2    -0.116281308865E+04   -0.85584E-02   -0.97748E-02  6151   0.388E-01    0.347E-01
RMM:   3    -0.116281289302E+04    0.19562E-03   -0.44056E-03  6165   0.121E-01    0.225E-01
RMM:   4    -0.116281262731E+04    0.26572E-03   -0.17303E-03  6909   0.434E-02    0.118E-01
RMM:   5    -0.116281262046E+04    0.68434E-05   -0.34668E-04  4873   0.214E-02    0.442E-02
RMM:   6    -0.116281264001E+04   -0.19550E-04   -0.75563E-05  3655   0.130E-02    0.256E-02
RMM:   7    -0.116281265993E+04   -0.19912E-04   -0.54421E-05  3607   0.993E-03    0.220E-02
RMM:   8    -0.116281268280E+04   -0.22872E-04   -0.36545E-05  3521   0.836E-03
  22 F= -.11628127E+04 E0= -.11628127E+04  d E =-.340316E-02  mag=     5.9999
       N       E                     dE             d eps       ncg     rms          rms(c)
DAV:   1    -0.116281270391E+04   -0.43986E-04   -0.14375E-04  4200   0.180E-02    0.136E-02
RMM:   2    -0.116281271862E+04   -0.14709E-04   -0.30257E-05  3341   0.964E-03    0.141E-02
RMM:   3    -0.116281272531E+04   -0.66920E-05   -0.12918E-05  3065   0.463E-03    0.125E-02
RMM:   4    -0.116281273428E+04   -0.89638E-05   -0.71675E-06  2654   0.451E-03    0.129E-02
RMM:   5    -0.116281274032E+04   -0.60390E-05   -0.51477E-06  2045   0.292E-03    0.124E-02
RMM:   6    -0.116281277508E+04   -0.34760E-04   -0.26740E-05  2817   0.646E-03    0.126E-02
RMM:   7    -0.116281282811E+04   -0.53039E-04   -0.84882E-05  3148   0.980E-03    0.118E-02
RMM:   8    -0.116281285933E+04   -0.31218E-04   -0.48378E-05  2425   0.571E-03
  23 F= -.11628129E+04 E0= -.11628128E+04  d E =-.357969E-02  mag=     5.9999
       N       E                     dE             d eps       ncg     rms          rms(c)
DAV:   1    -0.116280971845E+04    0.31097E-02   -0.23378E+00  6400   0.179E+00    0.373E-01
RMM:   2    -0.116281497909E+04   -0.52606E-02   -0.60649E-02  6158   0.310E-01    0.295E-01
RMM:   3    -0.116281488152E+04    0.97569E-04   -0.28638E-03  6165   0.101E-01    0.198E-01
RMM:   4    -0.116281472977E+04    0.15175E-03   -0.10075E-03  6266   0.349E-02    0.116E-01
RMM:   5    -0.116281471793E+04    0.11843E-04   -0.24576E-04  4373   0.203E-02    0.367E-02
RMM:   6    -0.116281473827E+04   -0.20340E-04   -0.65104E-05  3623   0.122E-02    0.224E-02
RMM:   7    -0.116281475534E+04   -0.17075E-04   -0.37688E-05  3539   0.900E-03    0.208E-02
RMM:   8    -0.116281477442E+04   -0.19073E-04   -0.26918E-05  3424   0.732E-03
  24 F= -.11628148E+04 E0= -.11628148E+04  d E =-.191508E-02  mag=     6.0000
       N       E                     dE             d eps       ncg     rms          rms(c)
DAV:   1    -0.116281475948E+04   -0.41366E-05   -0.36059E-02  6584   0.222E-01    0.480E-02
RMM:   2    -0.116281484970E+04   -0.90222E-04   -0.91299E-04  5961   0.394E-02    0.380E-02
RMM:   3    -0.116281485653E+04   -0.68225E-05   -0.37920E-05  3426   0.134E-02    0.267E-02
RMM:   4    -0.116281487117E+04   -0.14647E-04   -0.20842E-05  3300   0.614E-03    0.184E-02
RMM:   5    -0.116281488528E+04   -0.14105E-04   -0.10771E-05  2702   0.366E-03    0.138E-02
RMM:   6    -0.116281489385E+04   -0.85741E-05   -0.35637E-06  1793   0.274E-03    0.116E-02
RMM:   7    -0.116281490075E+04   -0.69031E-05   -0.23637E-06  1534   0.238E-03    0.114E-02
RMM:   8    -0.116281492640E+04   -0.25650E-04   -0.18669E-05  2427   0.518E-03
  25 F= -.11628149E+04 E0= -.11628149E+04  d E =-.206707E-02  mag=     6.0000
       N       E                     dE             d eps       ncg     rms          rms(c)
DAV:   1    -0.116281331281E+04    0.15879E-02   -0.12218E+00  6400   0.128E+00    0.295E-01
RMM:   2    -0.116281623934E+04   -0.29265E-02   -0.30882E-02  6200   0.224E-01    0.200E-01
RMM:   3    -0.116281628929E+04   -0.49950E-04   -0.15959E-03  6178   0.764E-02    0.128E-01
RMM:   4    -0.116281623186E+04    0.57433E-04   -0.46568E-04  5049   0.255E-02    0.721E-02
RMM:   5    -0.116281625184E+04   -0.19984E-04   -0.12295E-04  3693   0.169E-02    0.362E-02
RMM:   6    -0.116281627470E+04   -0.22855E-04   -0.47662E-05  3553   0.968E-03    0.201E-02
RMM:   7    -0.116281629716E+04   -0.22468E-04   -0.26560E-05  3486   0.753E-03    0.179E-02
RMM:   8    -0.116281632405E+04   -0.26888E-04   -0.22544E-05  3346   0.617E-03
  26 F= -.11628163E+04 E0= -.11628163E+04  d E =-.139765E-02  mag=     6.0000
       N       E                     dE             d eps       ncg     rms          rms(c)
DAV:   1    -0.116281635373E+04   -0.56571E-04   -0.25102E-03  6720   0.596E-02    0.204E-02
RMM:   2    -0.116281637757E+04   -0.23832E-04   -0.72430E-05  3391   0.119E-02    0.184E-02
RMM:   3    -0.116281638956E+04   -0.11997E-04   -0.11956E-05  3129   0.565E-03    0.161E-02
RMM:   4    -0.116281640342E+04   -0.13853E-04   -0.75974E-06  2303   0.395E-03    0.153E-02
RMM:   5    -0.116281643012E+04   -0.26699E-04   -0.14031E-05  2422   0.442E-03    0.144E-02
RMM:   6    -0.116281645477E+04   -0.24650E-04   -0.14274E-05  2128   0.389E-03    0.137E-02
RMM:   7    -0.116281648010E+04   -0.25336E-04   -0.14313E-05  2273   0.390E-03    0.137E-02
RMM:   8    -0.116281657436E+04   -0.94263E-04   -0.19317E-04  3445   0.161E-02
  27 F= -.11628166E+04 E0= -.11628166E+04  d E =-.164796E-02  mag=     6.0000
       N       E                     dE             d eps       ncg     rms          rms(c)
DAV:   1    -0.116281480580E+04    0.16743E-02   -0.10639E+00  6392   0.119E+00    0.323E-01
RMM:   2    -0.116281778410E+04   -0.29783E-02   -0.26605E-02  6213   0.209E-01    0.206E-01
RMM:   3    -0.116281793128E+04   -0.14718E-03   -0.13908E-03  6171   0.709E-02    0.119E-01
RMM:   4    -0.116281788252E+04    0.48754E-04   -0.37555E-04  4652   0.229E-02    0.571E-02
RMM:   5    -0.116281791035E+04   -0.27825E-04   -0.11313E-04  3673   0.155E-02    0.222E-02
RMM:   6    -0.116281792912E+04   -0.18769E-04   -0.38419E-05  3541   0.943E-03    0.185E-02
RMM:   7    -0.116281795023E+04   -0.21112E-04   -0.25529E-05  3426   0.698E-03    0.173E-02
RMM:   8    -0.116281798016E+04   -0.29932E-04   -0.23203E-05  3349   0.624E-03
  28 F= -.11628180E+04 E0= -.11628180E+04  d E =-.140580E-02  mag=     6.0000
