       N       E                     dE             d eps       ncg     rms          rms(c)
DAV:   1    -0.115700624356E+04   -0.11570E+04   -0.56264E-05  8312   0.189E-02    0.215E-02
RMM:   2    -0.115700631054E+04   -0.66983E-04   -0.60116E-05  6783   0.116E-02    0.339E-02
RMM:   3    -0.115700632529E+04   -0.14755E-04   -0.23061E-05  6289   0.527E-03    0.227E-02
RMM:   4    -0.115700630026E+04    0.25034E-04   -0.82849E-06  5862   0.489E-03    0.242E-02
RMM:   5    -0.115700628995E+04    0.10313E-04   -0.45177E-06  4563   0.320E-03    0.231E-02
RMM:   6    -0.115700637221E+04   -0.82262E-04   -0.29637E-05  5407   0.753E-03    0.242E-02
RMM:   7    -0.115700654541E+04   -0.17320E-03   -0.18054E-04  6775   0.141E-02    0.252E-02
RMM:   8    -0.115700661443E+04   -0.69023E-04   -0.76042E-05  5235   0.725E-03
   1 F= -.11570066E+04 E0= -.11570066E+04  d E =-.115701E+04  mag=    14.0000
       N       E                     dE             d eps       ncg     rms          rms(c)
DAV:   1    -0.115699596286E+04    0.10583E-01   -0.57420E+00 12680   0.261E+00    0.126E+00
RMM:   2    -0.115702043353E+04   -0.24471E-01   -0.15936E-01 12296   0.522E-01    0.822E-01
RMM:   3    -0.115702262803E+04   -0.21945E-02   -0.89135E-03 12527   0.174E-01    0.418E-01
RMM:   4    -0.115702185016E+04    0.77786E-03   -0.41687E-03 13502   0.696E-02    0.204E-01
RMM:   5    -0.115702188120E+04   -0.31042E-04   -0.79158E-04 10770   0.353E-02    0.831E-02
RMM:   6    -0.115702195596E+04   -0.74753E-04   -0.13545E-04  8121   0.151E-02    0.598E-02
RMM:   7    -0.115702206332E+04   -0.10736E-03   -0.87986E-05  7579   0.110E-02    0.454E-02
RMM:   8    -0.115702220983E+04   -0.14651E-03   -0.99334E-05  7404   0.118E-02    0.344E-02
RMM:   9    -0.115702230105E+04   -0.91222E-04   -0.62455E-05  7171   0.806E-03
   2 F= -.11570223E+04 E0= -.11570223E+04  d E =-.156866E-01  mag=    14.0000
       N       E                     dE             d eps       ncg     rms          rms(c)
DAV:   1    -0.115702683483E+04   -0.46250E-02   -0.11589E+00 12936   0.123E+00    0.509E-01
RMM:   2    -0.115702937607E+04   -0.25412E-02   -0.37979E-02 12300   0.257E-01    0.419E-01
RMM:   3    -0.115702929075E+04    0.85322E-04   -0.22406E-03 12795   0.832E-02    0.254E-01
RMM:   4    -0.115702899509E+04    0.29566E-03   -0.14235E-03 11960   0.422E-02    0.133E-01
RMM:   5    -0.115702905740E+04   -0.62307E-04   -0.41405E-04 10064   0.275E-02    0.660E-02
RMM:   6    -0.115702912253E+04   -0.65130E-04   -0.78264E-05  7494   0.117E-02    0.510E-02
RMM:   7    -0.115702921022E+04   -0.87693E-04   -0.56436E-05  7268   0.855E-03    0.404E-02
RMM:   8    -0.115702937739E+04   -0.16717E-03   -0.10876E-04  7295   0.121E-02    0.321E-02
RMM:   9    -0.115702945961E+04   -0.82222E-04   -0.62459E-05  6763   0.699E-03
   3 F= -.11570295E+04 E0= -.11570295E+04  d E =-.715856E-02  mag=    14.0000
       N       E                     dE             d eps       ncg     rms          rms(c)
DAV:   1    -0.115702708808E+04    0.22893E-02   -0.14815E+00 12672   0.135E+00    0.651E-01
RMM:   2    -0.115703404441E+04   -0.69563E-02   -0.36318E-02 12544   0.249E-01    0.380E-01
RMM:   3    -0.115703492437E+04   -0.87996E-03   -0.22858E-03 12851   0.882E-02    0.188E-01
RMM:   4    -0.115703502070E+04   -0.96329E-04   -0.75291E-04 11008   0.332E-02    0.939E-02
RMM:   5    -0.115703516800E+04   -0.14730E-03   -0.23301E-04  8054   0.222E-02    0.589E-02
RMM:   6    -0.115703524492E+04   -0.76922E-04   -0.83749E-05  7185   0.122E-02    0.397E-02
RMM:   7    -0.115703532852E+04   -0.83599E-04   -0.56196E-05  7076   0.979E-03    0.361E-02
RMM:   8    -0.115703548774E+04   -0.15922E-03   -0.95296E-05  7068   0.113E-02    0.329E-02
RMM:   9    -0.115703566906E+04   -0.18132E-03   -0.14628E-04  7174   0.116E-02    0.313E-02
RMM:  10    -0.115703577602E+04   -0.10695E-03   -0.85998E-05  6531   0.809E-03    0.294E-02
RMM:  11    -0.115703600472E+04   -0.22870E-03   -0.23900E-04  7289   0.159E-02    0.274E-02
RMM:  12    -0.115703645433E+04   -0.44961E-03   -0.13203E-03  8804   0.369E-02    0.233E-02
RMM:  13    -0.115703672482E+04   -0.27049E-03   -0.94408E-04  8358   0.287E-02    0.210E-02
RMM:  14    -0.115703688033E+04   -0.15551E-03   -0.46606E-04  7776   0.184E-02    0.198E-02
RMM:  15    -0.115703697334E+04   -0.93012E-04   -0.19596E-04  6627   0.118E-02
   4 F= -.11570370E+04 E0= -.11570370E+04  d E =-.751373E-02  mag=    14.0000
       N       E                     dE             d eps       ncg     rms          rms(c)
DAV:   1    -0.115703490366E+04    0.19767E-02   -0.12497E+00 12624   0.123E+00    0.554E-01
RMM:   2    -0.115704051228E+04   -0.56086E-02   -0.30716E-02 12612   0.227E-01    0.322E-01
RMM:   3    -0.115704111631E+04   -0.60403E-03   -0.18152E-03 12679   0.796E-02    0.154E-01
RMM:   4    -0.115704113003E+04   -0.13719E-04   -0.46322E-04  9837   0.280E-02    0.709E-02
RMM:   5    -0.115704119659E+04   -0.66569E-04   -0.15942E-04  7397   0.182E-02    0.333E-02
RMM:   6    -0.115704123332E+04   -0.36724E-04   -0.54845E-05  7123   0.104E-02    0.267E-02
RMM:   7    -0.115704126837E+04   -0.35048E-04   -0.33168E-05  6951   0.789E-03    0.254E-02
RMM:   8    -0.115704133172E+04   -0.63354E-04   -0.41446E-05  6891   0.802E-03
   5 F= -.11570413E+04 E0= -.11570413E+04  d E =-.435838E-02  mag=    14.0000
       N       E                     dE             d eps       ncg     rms          rms(c)
DAV:   1    -0.115703993525E+04    0.13331E-02   -0.96331E-01 12672   0.111E+00    0.414E-01
RMM:   2    -0.115704357080E+04   -0.36355E-02   -0.23595E-02 12992   0.198E-01    0.238E-01
RMM:   3    -0.115704388397E+04   -0.31317E-03   -0.12490E-03 12241   0.637E-02    0.122E-01
RMM:   4    -0.115704391921E+04   -0.35239E-04   -0.31115E-04  8462   0.244E-02    0.561E-02
RMM:   5    -0.115704400912E+04   -0.89903E-04   -0.15278E-04  7332   0.160E-02    0.309E-02
RMM:   6    -0.115704405234E+04   -0.43224E-04   -0.51866E-05  7060   0.106E-02    0.276E-02
RMM:   7    -0.115704410219E+04   -0.49849E-04   -0.39806E-05  6937   0.800E-03    0.268E-02
RMM:   8    -0.115704419121E+04   -0.89022E-04   -0.59002E-05  6834   0.900E-03
   6 F= -.11570442E+04 E0= -.11570442E+04  d E =-.285949E-02  mag=    14.0000
       N       E                     dE             d eps       ncg     rms          rms(c)
DAV:   1    -0.115704421054E+04   -0.10835E-03   -0.58247E-01 12768   0.875E-01    0.237E-01
RMM:   2    -0.115704586277E+04   -0.16522E-02   -0.14483E-02 12974   0.154E-01    0.146E-01
RMM:   3    -0.115704593875E+04   -0.75981E-04   -0.71218E-04 10485   0.491E-02    0.878E-02
RMM:   4    -0.115704597330E+04   -0.34553E-04   -0.20829E-04  7504   0.190E-02    0.464E-02
RMM:   5    -0.115704605363E+04   -0.80331E-04   -0.11501E-04  7199   0.130E-02    0.287E-02
RMM:   6    -0.115704609313E+04   -0.39494E-04   -0.42142E-05  6989   0.905E-03    0.287E-02
RMM:   7    -0.115704612030E+04   -0.27172E-04   -0.24884E-05  6766   0.631E-03    0.256E-02
RMM:   8    -0.115704622150E+04   -0.10120E-03   -0.72175E-05  6862   0.103E-02    0.245E-02
RMM:   9    -0.115704630265E+04   -0.81154E-04   -0.72597E-05  6523   0.780E-03
   7 F= -.11570463E+04 E0= -.11570463E+04  d E =-.211144E-02  mag=    14.0000
       N       E                     dE             d eps       ncg     rms          rms(c)
DAV:   1    -0.115704618388E+04    0.37619E-04   -0.55565E-01 12720   0.853E-01    0.222E-01
RMM:   2    -0.115704774622E+04   -0.15623E-02   -0.13614E-02 13016   0.149E-01    0.135E-01
RMM:   3    -0.115704781495E+04   -0.68734E-04   -0.64234E-04 10092   0.471E-02    0.808E-02
RMM:   4    -0.115704784671E+04   -0.31757E-04   -0.18164E-04  7366   0.180E-02    0.431E-02
RMM:   5    -0.115704792030E+04   -0.73590E-04   -0.10270E-04  7150   0.124E-02    0.276E-02
RMM:   6    -0.115704795196E+04   -0.31657E-04   -0.35421E-05  6942   0.832E-03    0.266E-02
RMM:   7    -0.115704798072E+04   -0.28764E-04   -0.23125E-05  6709   0.623E-03    0.242E-02
RMM:   8    -0.115704806146E+04   -0.80735E-04   -0.53541E-05  6724   0.861E-03
   8 F= -.11570481E+04 E0= -.11570481E+04  d E =-.175880E-02  mag=    14.0000
       N       E                     dE             d eps       ncg     rms          rms(c)
DAV:   1    -0.115704800498E+04   -0.24263E-04   -0.39313E-01 12840   0.714E-01    0.179E-01
RMM:   2    -0.115704911065E+04   -0.11057E-02   -0.96176E-03 12862   0.124E-01    0.108E-01
RMM:   3    -0.115704916180E+04   -0.51148E-04   -0.44345E-04  9078   0.400E-02    0.666E-02
RMM:   4    -0.115704919826E+04   -0.36453E-04   -0.13592E-04  7202   0.154E-02    0.380E-02
RMM:   5    -0.115704926625E+04   -0.67992E-04   -0.81373E-05  7071   0.109E-02    0.257E-02
RMM:   6    -0.115704929921E+04   -0.32962E-04   -0.31652E-05  6882   0.739E-03    0.252E-02
RMM:   7    -0.115704932327E+04   -0.24063E-04   -0.18548E-05  6450   0.564E-03    0.233E-02
RMM:   8    -0.115704939761E+04   -0.74341E-04   -0.47337E-05  6567   0.804E-03
   9 F= -.11570494E+04 E0= -.11570494E+04  d E =-.133616E-02  mag=    14.0000
       N       E                     dE             d eps       ncg     rms          rms(c)
DAV:   1    -0.115704948177E+04   -0.15850E-03   -0.30029E-01 12704   0.622E-01    0.149E-01
RMM:   2    -0.115705031084E+04   -0.82907E-03   -0.73247E-03 12840   0.108E-01    0.912E-02
RMM:   3    -0.115705034767E+04   -0.36827E-04   -0.32494E-04  8398   0.349E-02    0.571E-02
RMM:   4    -0.115705038430E+04   -0.36629E-04   -0.10991E-04  7156   0.139E-02    0.335E-02
RMM:   5    -0.115705044486E+04   -0.60560E-04   -0.66592E-05  7012   0.976E-03    0.253E-02
RMM:   6    -0.115705047063E+04   -0.25770E-04   -0.24735E-05  6759   0.651E-03    0.234E-02
RMM:   7    -0.115705049650E+04   -0.25869E-04   -0.16767E-05  6078   0.549E-03    0.223E-02
RMM:   8    -0.115705054801E+04   -0.51515E-04   -0.28748E-05  6073   0.603E-03
  10 F= -.11570505E+04 E0= -.11570505E+04  d E =-.115040E-02  mag=    14.0000
       N       E                     dE             d eps       ncg     rms          rms(c)
DAV:   1    -0.115705076385E+04   -0.26735E-03   -0.17483E-01 12488   0.473E-01    0.113E-01
RMM:   2    -0.115705125989E+04   -0.49604E-03   -0.42570E-03 12794   0.820E-02    0.695E-02
RMM:   3    -0.115705128830E+04   -0.28414E-04   -0.18095E-04  7603   0.267E-02    0.443E-02
RMM:   4    -0.115705132504E+04   -0.36738E-04   -0.72701E-05  7054   0.113E-02    0.280E-02
RMM:   5    -0.115705137691E+04   -0.51869E-04   -0.47986E-05  6841   0.781E-03    0.230E-02
RMM:   6    -0.115705139901E+04   -0.22096E-04   -0.17671E-05  6146   0.523E-03    0.215E-02
RMM:   7    -0.115705141707E+04   -0.18066E-04   -0.10671E-05  5306   0.448E-03    0.210E-02
RMM:   8    -0.115705144637E+04   -0.29296E-04   -0.13099E-05  5420   0.419E-03
  11 F= -.11570514E+04 E0= -.11570514E+04  d E =-.898355E-03  mag=    14.0000
       N       E                     dE             d eps       ncg     rms          rms(c)
DAV:   1    -0.115705161278E+04   -0.19571E-03   -0.17339E-01 12400   0.470E-01    0.108E-01
RMM:   2    -0.115705209511E+04   -0.48233E-03   -0.42444E-03 12849   0.821E-02    0.677E-02
RMM:   3    -0.115705212000E+04   -0.24883E-04   -0.17581E-04  7594   0.262E-02    0.440E-02
RMM:   4    -0.115705215457E+04   -0.34576E-04   -0.69774E-05  7034   0.110E-02    0.280E-02
RMM:   5    -0.115705220404E+04   -0.49465E-04   -0.45584E-05  6784   0.779E-03    0.225E-02
RMM:   6    -0.115705222612E+04   -0.22079E-04   -0.17665E-05  6143   0.512E-03    0.212E-02
RMM:   7    -0.115705224465E+04   -0.18531E-04   -0.10625E-05  5314   0.449E-03    0.205E-02
RMM:   8    -0.115705228147E+04   -0.36820E-04   -0.18083E-05  5658   0.485E-03
  12 F= -.11570523E+04 E0= -.11570523E+04  d E =-.835099E-03  mag=    14.0000
       N       E                     dE             d eps       ncg     rms          rms(c)
DAV:   1    -0.115705252964E+04   -0.28499E-03   -0.75046E-02 12448   0.310E-01    0.703E-02
RMM:   2    -0.115705274612E+04   -0.21648E-03   -0.18322E-03 12369   0.543E-02    0.451E-02
RMM:   3    -0.115705276705E+04   -0.20932E-04   -0.81065E-05  7007   0.189E-02    0.315E-02
RMM:   4    -0.115705280080E+04   -0.33749E-04   -0.43994E-05  6792   0.839E-03    0.233E-02
RMM:   5    -0.115705283947E+04   -0.38668E-04   -0.29026E-05  6163   0.568E-03    0.218E-02
RMM:   6    -0.115705286019E+04   -0.20718E-04   -0.12804E-05  5241   0.411E-03    0.196E-02
RMM:   7    -0.115705287436E+04   -0.14168E-04   -0.69015E-06  4523   0.354E-03    0.194E-02
RMM:   8    -0.115705288774E+04   -0.13381E-04   -0.48099E-06  4205   0.295E-03
  13 F= -.11570529E+04 E0= -.11570529E+04  d E =-.606270E-03  mag=    14.0000
       N       E                     dE             d eps       ncg     rms          rms(c)
DAV:   1    -0.115705307935E+04   -0.20499E-03   -0.89548E-02 12256   0.338E-01    0.739E-02
RMM:   2    -0.115705332930E+04   -0.24996E-03   -0.22040E-03 12719   0.594E-02    0.484E-02
RMM:   3    -0.115705334763E+04   -0.18332E-04   -0.88158E-05  7061   0.191E-02    0.337E-02
RMM:   4    -0.115705338054E+04   -0.32908E-04   -0.45229E-05  6844   0.856E-03    0.236E-02
RMM:   5    -0.115705342151E+04   -0.40974E-04   -0.31287E-05  6303   0.611E-03    0.207E-02
RMM:   6    -0.115705344023E+04   -0.18715E-04   -0.12571E-05  5179   0.402E-03    0.195E-02
RMM:   7    -0.115705345468E+04   -0.14446E-04   -0.70646E-06  4610   0.375E-03    0.191E-02
RMM:   8    -0.115705347626E+04   -0.21582E-04   -0.87168E-06  4653   0.355E-03
  14 F= -.11570535E+04 E0= -.11570535E+04  d E =-.588521E-03  mag=    14.0000
       N       E                     dE             d eps       ncg     rms          rms(c)
DAV:   1    -0.115705369410E+04   -0.23942E-03   -0.73184E-02 12320   0.308E-01    0.673E-02
RMM:   2    -0.115705389890E+04   -0.20481E-03   -0.17922E-03 12408   0.541E-02    0.435E-02
RMM:   3    -0.115705391768E+04   -0.18776E-04   -0.78073E-05  6968   0.187E-02    0.308E-02
RMM:   4    -0.115705394771E+04   -0.30029E-04   -0.40083E-05  6768   0.819E-03    0.225E-02
RMM:   5    -0.115705398381E+04   -0.36104E-04   -0.27018E-05  6077   0.565E-03    0.206E-02
RMM:   6    -0.115705400194E+04   -0.18126E-04   -0.11521E-05  5032   0.393E-03    0.187E-02
RMM:   7    -0.115705401394E+04   -0.12002E-04   -0.56181E-06  4335   0.344E-03    0.185E-02
RMM:   8    -0.115705401977E+04   -0.58276E-05   -0.30450E-06  3610   0.256E-03
  15 F= -.11570540E+04 E0= -.11570540E+04  d E =-.543508E-03  mag=    14.0000
       N       E                     dE             d eps       ncg     rms          rms(c)
DAV:   1    -0.115705421282E+04   -0.19888E-03   -0.66967E-02 12248   0.293E-01    0.635E-02
RMM:   2    -0.115705440005E+04   -0.18723E-03   -0.16454E-03 12349   0.519E-02    0.418E-02
RMM:   3    -0.115705441779E+04   -0.17736E-04   -0.72803E-05  6951   0.179E-02    0.299E-02
RMM:   4    -0.115705444664E+04   -0.28854E-04   -0.37490E-05  6702   0.790E-03    0.219E-02
RMM:   5    -0.115705448204E+04   -0.35400E-04   -0.26199E-05  6046   0.556E-03    0.200E-02
RMM:   6    -0.115705449913E+04   -0.17086E-04   -0.11072E-05  4913   0.382E-03    0.184E-02
RMM:   7    -0.115705451028E+04   -0.11155E-04   -0.51299E-06  4226   0.333E-03    0.182E-02
RMM:   8    -0.115705451476E+04   -0.44842E-05   -0.25302E-06  3388   0.250E-03
  16 F= -.11570545E+04 E0= -.11570545E+04  d E =-.494998E-03  mag=    14.0000
       N       E                     dE             d eps       ncg     rms          rms(c)
DAV:   1    -0.115705472351E+04   -0.21323E-03   -0.95125E-02 12304   0.350E-01    0.742E-02
RMM:   2    -0.115705498164E+04   -0.25813E-03   -0.23609E-03 12714   0.619E-02    0.479E-02
RMM:   3    -0.115705499716E+04   -0.15516E-04   -0.94857E-05  7078   0.199E-02    0.330E-02
RMM:   4    -0.115705502379E+04   -0.26633E-04   -0.42883E-05  6848   0.855E-03    0.226E-02
RMM:   5    -0.115705505805E+04   -0.34265E-04   -0.27486E-05  6308   0.599E-03    0.197E-02
RMM:   6    -0.115705507389E+04   -0.15831E-04   -0.11085E-05  5149   0.396E-03    0.182E-02
RMM:   7    -0.115705508344E+04   -0.95559E-05   -0.49089E-06  4394   0.346E-03    0.179E-02
RMM:   8    -0.115705509029E+04   -0.68469E-05   -0.32666E-06  3686   0.258E-03
  17 F= -.11570551E+04 E0= -.11570551E+04  d E =-.575523E-03  mag=    14.0000
       N       E                     dE             d eps       ncg     rms          rms(c)
DAV:   1    -0.115705517978E+04   -0.96338E-04   -0.18138E-01 12352   0.481E-01    0.101E-01
RMM:   2    -0.115705565144E+04   -0.47166E-03   -0.44414E-03 12923   0.840E-02    0.640E-02
RMM:   3    -0.115705566587E+04   -0.14434E-04   -0.17501E-04  7580   0.258E-02    0.423E-02
RMM:   4    -0.115705568993E+04   -0.24054E-04   -0.62066E-05  7008   0.107E-02    0.264E-02
RMM:   5    -0.115705572739E+04   -0.37464E-04   -0.38326E-05  6747   0.749E-03    0.204E-02
RMM:   6    -0.115705574405E+04   -0.16658E-04   -0.14687E-05  6037   0.492E-03    0.189E-02
RMM:   7    -0.115705575894E+04   -0.14894E-04   -0.91978E-06  5238   0.425E-03    0.183E-02
RMM:   8    -0.115705578453E+04   -0.25585E-04   -0.12818E-05  5386   0.424E-03
  18 F= -.11570558E+04 E0= -.11570558E+04  d E =-.694238E-03  mag=    14.0000
       N       E                     dE             d eps       ncg     rms          rms(c)
DAV:   1    -0.115705570300E+04    0.55942E-04   -0.29614E-01 12384   0.612E-01    0.128E-01
RMM:   2    -0.115705645863E+04   -0.75563E-03   -0.71980E-03 12997   0.106E-01    0.802E-02
RMM:   3    -0.115705647162E+04   -0.13000E-04   -0.28831E-04  8210   0.321E-02    0.517E-02
RMM:   4    -0.115705648945E+04   -0.17829E-04   -0.85760E-05  7088   0.127E-02    0.305E-02
RMM:   5    -0.115705652922E+04   -0.39762E-04   -0.51813E-05  6911   0.913E-03    0.210E-02
RMM:   6    -0.115705654700E+04   -0.17788E-04   -0.19384E-05  6540   0.589E-03    0.196E-02
RMM:   7    -0.115705656246E+04   -0.15455E-04   -0.11818E-05  5648   0.486E-03    0.186E-02
RMM:   8    -0.115705659527E+04   -0.32817E-04   -0.19074E-05  5822   0.518E-03
  19 F= -.11570566E+04 E0= -.11570566E+04  d E =-.810748E-03  mag=    14.0000
