       N       E                     dE             d eps       ncg     rms          rms(c)
DAV:   1     0.121065398900E+05    0.12107E+05   -0.42641E+05 12352   0.132E+03
DAV:   2     0.718295621118E+03   -0.11388E+05   -0.10175E+05 12304   0.380E+02
DAV:   3    -0.134606547994E+04   -0.20644E+04   -0.19868E+04 13208   0.168E+02
DAV:   4    -0.148968382772E+04   -0.14362E+03   -0.14115E+03 16248   0.471E+01
DAV:   5    -0.149923413573E+04   -0.95503E+01   -0.94997E+01 22112   0.113E+01    0.183E+02
RMM:   6    -0.116044348451E+04    0.33879E+03   -0.16438E+03 12578   0.363E+01    0.133E+02
RMM:   7    -0.114282342726E+04    0.17620E+02   -0.65205E+01 12802   0.128E+01    0.785E+01
RMM:   8    -0.114612233172E+04   -0.32989E+01   -0.26725E+01 14171   0.596E+00    0.418E+01
RMM:   9    -0.115047720958E+04   -0.43549E+01   -0.76214E+00 13640   0.323E+00    0.176E+01
RMM:  10    -0.115185045533E+04   -0.13732E+01   -0.26429E+00 14205   0.177E+00    0.846E+00
RMM:  11    -0.115302804959E+04   -0.11776E+01   -0.13539E+00 14267   0.113E+00    0.727E+00
RMM:  12    -0.115370261994E+04   -0.67457E+00   -0.50418E-01 14303   0.764E-01    0.397E+00
RMM:  13    -0.115445733639E+04   -0.75472E+00   -0.66420E-01 13362   0.725E-01    0.181E+00
RMM:  14    -0.115460820752E+04   -0.15087E+00   -0.20396E-01 13873   0.488E-01    0.105E+00
RMM:  15    -0.115464090361E+04   -0.32696E-01   -0.74173E-02 14975   0.264E-01    0.584E-01
RMM:  16    -0.115465258139E+04   -0.11678E-01   -0.27699E-02 16068   0.144E-01    0.442E-01
RMM:  17    -0.115465902681E+04   -0.64454E-02   -0.10311E-02 15029   0.949E-02    0.266E-01
RMM:  18    -0.115466174996E+04   -0.27231E-02   -0.32716E-03 12731   0.501E-02    0.231E-01
RMM:  19    -0.115466572961E+04   -0.39797E-02   -0.31123E-03 11848   0.536E-02    0.201E-01
RMM:  20    -0.115467247871E+04   -0.67491E-02   -0.83750E-03 11317   0.922E-02    0.181E-01
RMM:  21    -0.115467837812E+04   -0.58994E-02   -0.10550E-02 11314   0.102E-01    0.148E-01
RMM:  22    -0.115468345175E+04   -0.50736E-02   -0.11825E-02 11258   0.109E-01    0.128E-01
RMM:  23    -0.115468604383E+04   -0.25921E-02   -0.60077E-03 11496   0.673E-02    0.107E-01
RMM:  24    -0.115468944661E+04   -0.34028E-02   -0.14520E-02 11011   0.129E-01    0.107E-01
RMM:  25    -0.115469163748E+04   -0.21909E-02   -0.78395E-03 11074   0.838E-02    0.819E-02
RMM:  26    -0.115469262638E+04   -0.98890E-03   -0.42448E-03 10786   0.610E-02    0.696E-02
RMM:  27    -0.115469347931E+04   -0.85293E-03   -0.35316E-03 10529   0.596E-02    0.346E-02
RMM:  28    -0.115469377655E+04   -0.29724E-03   -0.21270E-03 10359   0.396E-02    0.299E-02
RMM:  29    -0.115469392579E+04   -0.14924E-03   -0.69359E-04  9056   0.227E-02    0.189E-02
RMM:  30    -0.115469399713E+04   -0.71334E-04   -0.38563E-04  8391   0.173E-02
   1 F= -.11546940E+04 E0= -.11546940E+04  d E =-.115469E+04  mag=    14.0002
       N       E                     dE             d eps       ncg     rms          rms(c)
DAV:   1    -0.110678927888E+04    0.47905E+02   -0.19891E+03 13144   0.399E+01    0.385E+01
RMM:   2    -0.116188003537E+04   -0.55091E+02   -0.28347E+02 13852   0.143E+01    0.472E+01
RMM:   3    -0.115570479441E+04    0.61752E+01   -0.29335E+01 12367   0.711E+00    0.333E+01
RMM:   4    -0.115308234970E+04    0.26224E+01   -0.48412E+00 13690   0.241E+00    0.209E+01
RMM:   5    -0.115372489050E+04   -0.64254E+00   -0.11533E+00 14399   0.991E-01    0.171E+01
RMM:   6    -0.115409386878E+04   -0.36898E+00   -0.14702E+00 13030   0.120E+00    0.158E+01
RMM:   7    -0.115443220570E+04   -0.33834E+00   -0.13272E+00 12983   0.111E+00    0.136E+01
RMM:   8    -0.115380992973E+04    0.62228E+00   -0.95065E-01 12925   0.939E-01    0.569E+00
RMM:   9    -0.115384209506E+04   -0.32165E-01   -0.39469E-01 12719   0.733E-01    0.426E+00
RMM:  10    -0.115381719070E+04    0.24904E-01   -0.14936E-01 13607   0.375E-01    0.179E+00
RMM:  11    -0.115382707327E+04   -0.98826E-02   -0.31564E-02 13266   0.180E-01    0.164E+00
RMM:  12    -0.115382519741E+04    0.18759E-02   -0.22440E-02 13360   0.156E-01    0.894E-01
RMM:  13    -0.115382589658E+04   -0.69917E-03   -0.65462E-03 12755   0.836E-02    0.607E-01
RMM:  14    -0.115382761053E+04   -0.17140E-02   -0.43050E-03 12234   0.697E-02    0.159E-01
RMM:  15    -0.115382786209E+04   -0.25156E-03   -0.89039E-04 11424   0.282E-02    0.128E-01
RMM:  16    -0.115382825724E+04   -0.39514E-03   -0.54680E-04  9587   0.274E-02    0.854E-02
RMM:  17    -0.115382840874E+04   -0.15151E-03   -0.21709E-04  8175   0.163E-02    0.360E-02
RMM:  18    -0.115382849197E+04   -0.83226E-04   -0.10279E-04  7774   0.109E-02
   2 F= -.11538285E+04 E0= -.11538285E+04  d E =0.865505E+00  mag=    13.9929
       N       E                     dE             d eps       ncg     rms          rms(c)
DAV:   1    -0.114720447687E+04    0.66239E+01   -0.33386E+02 13128   0.168E+01    0.152E+01
RMM:   2    -0.115587065128E+04   -0.86662E+01   -0.22092E+01 12975   0.489E+00    0.224E+01
RMM:   3    -0.115587586498E+04   -0.52137E-02   -0.13995E+00 12564   0.184E+00    0.655E+00
RMM:   4    -0.115577890739E+04    0.96958E-01   -0.60672E-01 13821   0.746E-01    0.452E+00
RMM:   5    -0.115571817706E+04    0.60730E-01   -0.14191E-01 13509   0.351E-01    0.207E+00
RMM:   6    -0.115571058352E+04    0.75935E-02   -0.53200E-02 13277   0.221E-01    0.776E-01
RMM:   7    -0.115571090240E+04   -0.31888E-03   -0.86408E-03 15919   0.827E-02    0.483E-01
RMM:   8    -0.115571081290E+04    0.89494E-04   -0.16157E-03 14559   0.362E-02    0.259E-01
RMM:   9    -0.115571088281E+04   -0.69908E-04   -0.67982E-04 12944   0.245E-02
   3 F= -.11557109E+04 E0= -.11557109E+04  d E =-.188239E+01  mag=    13.9995
       N       E                     dE             d eps       ncg     rms          rms(c)
DAV:   1    -0.115577980028E+04   -0.68987E-01   -0.56843E+01 13352   0.678E+00    0.496E+00
RMM:   2    -0.115609337405E+04   -0.31357E+00   -0.15269E+00 12335   0.137E+00    0.344E+00
RMM:   3    -0.115612791069E+04   -0.34537E-01   -0.84867E-02 12677   0.463E-01    0.166E+00
RMM:   4    -0.115611994039E+04    0.79703E-02   -0.25707E-02 13266   0.155E-01    0.992E-01
RMM:   5    -0.115611783572E+04    0.21047E-02   -0.85067E-03 12610   0.924E-02    0.268E-01
RMM:   6    -0.115611786456E+04   -0.28839E-04   -0.14005E-03 12792   0.356E-02    0.172E-01
RMM:   7    -0.115611786663E+04   -0.20702E-05   -0.31122E-04  9220   0.162E-02    0.101E-01
RMM:   8    -0.115611788573E+04   -0.19094E-04   -0.17755E-04  8423   0.151E-02
   4 F= -.11561179E+04 E0= -.11561179E+04  d E =-.407003E+00  mag=    14.0000
       N       E                     dE             d eps       ncg     rms          rms(c)
DAV:   1    -0.115604092253E+04    0.76944E-01   -0.40473E+01 13088   0.554E+00    0.450E+00
RMM:   2    -0.115628956921E+04   -0.24865E+00   -0.10231E+00 12489   0.109E+00    0.292E+00
RMM:   3    -0.115632038662E+04   -0.30817E-01   -0.59321E-02 12917   0.357E-01    0.145E+00
RMM:   4    -0.115631590307E+04    0.44836E-02   -0.21635E-02 13356   0.137E-01    0.788E-01
RMM:   5    -0.115631534775E+04    0.55532E-03   -0.46528E-03 13095   0.642E-02    0.234E-01
RMM:   6    -0.115631539171E+04   -0.43967E-04   -0.91668E-04 11620   0.256E-02    0.137E-01
RMM:   7    -0.115631538706E+04    0.46490E-05   -0.27220E-04  8729   0.171E-02    0.105E-01
RMM:   8    -0.115631539793E+04   -0.10870E-04   -0.13058E-04  7952   0.154E-02
   5 F= -.11563154E+04 E0= -.11563154E+04  d E =-.197512E+00  mag=    14.0000
       N       E                     dE             d eps       ncg     rms          rms(c)
DAV:   1    -0.115626180119E+04    0.53586E-01   -0.23265E+01 12760   0.498E+00    0.275E+00
RMM:   2    -0.115636219956E+04   -0.10040E+00   -0.59621E-01 12375   0.968E-01    0.186E+00
RMM:   3    -0.115637281769E+04   -0.10618E-01   -0.37212E-02 13239   0.299E-01    0.109E+00
RMM:   4    -0.115637014315E+04    0.26745E-02   -0.10990E-02 13871   0.108E-01    0.451E-01
RMM:   5    -0.115636997144E+04    0.17171E-03   -0.34117E-03 13205   0.584E-02    0.176E-01
RMM:   6    -0.115636994816E+04    0.23279E-04   -0.45003E-04 10062   0.229E-02    0.139E-01
RMM:   7    -0.115636995778E+04   -0.96193E-05   -0.13315E-04  8195   0.127E-02    0.646E-02
RMM:   8    -0.115636997737E+04   -0.19588E-04   -0.11790E-04  7815   0.129E-02
   6 F= -.11563700E+04 E0= -.11563700E+04  d E =-.545794E-01  mag=    14.0000
       N       E                     dE             d eps       ncg     rms          rms(c)
DAV:   1    -0.115638041260E+04   -0.10455E-01   -0.79483E+00 12984   0.312E+00    0.939E-01
RMM:   2    -0.115640131978E+04   -0.20907E-01   -0.19999E-01 12450   0.576E-01    0.708E-01
RMM:   3    -0.115640218688E+04   -0.86709E-03   -0.12392E-02 13422   0.178E-01    0.443E-01
RMM:   4    -0.115640146381E+04    0.72306E-03   -0.25798E-03 14521   0.555E-02    0.246E-01
RMM:   5    -0.115640130630E+04    0.15752E-03   -0.11405E-03 12030   0.323E-02    0.661E-02
RMM:   6    -0.115640131480E+04   -0.84998E-05   -0.14571E-04  7951   0.160E-02    0.591E-02
RMM:   7    -0.115640132210E+04   -0.73037E-05   -0.64014E-05  7338   0.974E-03    0.307E-02
RMM:   8    -0.115640132863E+04   -0.65264E-05   -0.47449E-05  7222   0.961E-03
   7 F= -.11564013E+04 E0= -.11564013E+04  d E =-.313513E-01  mag=    14.0000
       N       E                     dE             d eps       ncg     rms          rms(c)
DAV:   1    -0.115638717986E+04    0.14142E-01   -0.19003E+01 12736   0.486E+00    0.114E+00
RMM:   2    -0.115643430304E+04   -0.47123E-01   -0.44404E-01 12510   0.836E-01    0.736E-01
RMM:   3    -0.115643598404E+04   -0.16810E-02   -0.24161E-02 13009   0.277E-01    0.432E-01
RMM:   4    -0.115643495610E+04    0.10279E-02   -0.55860E-03 16154   0.819E-02    0.241E-01
RMM:   5    -0.115643474685E+04    0.20925E-03   -0.21632E-03 14399   0.414E-02    0.112E-01
RMM:   6    -0.115643476793E+04   -0.21080E-04   -0.32800E-04 10227   0.207E-02    0.480E-02
RMM:   7    -0.115643478185E+04   -0.13919E-04   -0.14356E-04  8146   0.124E-02    0.284E-02
RMM:   8    -0.115643479623E+04   -0.14383E-04   -0.11495E-04  7815   0.118E-02
   8 F= -.11564348E+04 E0= -.11564348E+04  d E =-.334676E-01  mag=    14.0000
       N       E                     dE             d eps       ncg     rms          rms(c)
DAV:   1    -0.115643403301E+04    0.74883E-03   -0.86784E+00 12760   0.332E+00    0.625E-01
RMM:   2    -0.115645326643E+04   -0.19233E-01   -0.20393E-01 12539   0.560E-01    0.422E-01
RMM:   3    -0.115645337676E+04   -0.11033E-03   -0.10833E-02 12800   0.192E-01    0.274E-01
RMM:   4    -0.115645296373E+04    0.41303E-03   -0.28494E-03 15424   0.570E-02    0.164E-01
RMM:   5    -0.115645290506E+04    0.58672E-04   -0.91856E-04 12881   0.278E-02    0.472E-02
RMM:   6    -0.115645291945E+04   -0.14399E-04   -0.13845E-04  8030   0.146E-02    0.260E-02
RMM:   7    -0.115645292956E+04   -0.10105E-04   -0.80249E-05  7494   0.106E-02    0.171E-02
RMM:   8    -0.115645294055E+04   -0.10986E-04   -0.74609E-05  7296   0.957E-03
   9 F= -.11564529E+04 E0= -.11564529E+04  d E =-.181443E-01  mag=    14.0000
       N       E                     dE             d eps       ncg     rms          rms(c)
DAV:   1    -0.115644538239E+04    0.75472E-02   -0.11761E+01 12640   0.388E+00    0.674E-01
RMM:   2    -0.115647089760E+04   -0.25515E-01   -0.27596E-01 12557   0.649E-01    0.442E-01
RMM:   3    -0.115647078644E+04    0.11117E-03   -0.14060E-02 12816   0.221E-01    0.293E-01
RMM:   4    -0.115647028428E+04    0.50216E-03   -0.37645E-03 15775   0.656E-02    0.167E-01
RMM:   5    -0.115647022947E+04    0.54808E-04   -0.10885E-03 13592   0.297E-02    0.516E-02
RMM:   6    -0.115647024409E+04   -0.14621E-04   -0.17934E-04  8544   0.155E-02    0.293E-02
RMM:   7    -0.115647025466E+04   -0.10567E-04   -0.92179E-05  7648   0.110E-02    0.183E-02
RMM:   8    -0.115647026502E+04   -0.10361E-04   -0.89275E-05  7485   0.102E-02
  10 F= -.11564703E+04 E0= -.11564703E+04  d E =-.173245E-01  mag=    14.0000
       N       E                     dE             d eps       ncg     rms          rms(c)
DAV:   1    -0.115646248234E+04    0.77723E-02   -0.96822E+00 12640   0.353E+00    0.606E-01
RMM:   2    -0.115648347241E+04   -0.20990E-01   -0.22626E-01 12508   0.589E-01    0.393E-01
RMM:   3    -0.115648341590E+04    0.56504E-04   -0.11765E-02 12761   0.204E-01    0.259E-01
RMM:   4    -0.115648296664E+04    0.44926E-03   -0.33930E-03 15279   0.619E-02    0.133E-01
RMM:   5    -0.115648296866E+04   -0.20255E-05   -0.76873E-04 12634   0.261E-02    0.365E-02
RMM:   6    -0.115648297974E+04   -0.11078E-04   -0.13418E-04  8248   0.143E-02    0.221E-02
RMM:   7    -0.115648299207E+04   -0.12326E-04   -0.10992E-04  7703   0.115E-02    0.119E-02
RMM:   8    -0.115648299964E+04   -0.75759E-05   -0.71371E-05  7288   0.942E-03
  11 F= -.11564830E+04 E0= -.11564830E+04  d E =-.127346E-01  mag=    14.0000
       N       E                     dE             d eps       ncg     rms          rms(c)
DAV:   1    -0.115647749998E+04    0.54921E-02   -0.65770E+00 12768   0.292E+00    0.506E-01
RMM:   2    -0.115649202523E+04   -0.14525E-01   -0.15500E-01 12668   0.488E-01    0.315E-01
RMM:   3    -0.115649193868E+04    0.86546E-04   -0.77745E-03 12934   0.163E-01    0.207E-01
RMM:   4    -0.115649162753E+04    0.31115E-03   -0.21678E-03 14712   0.504E-02    0.102E-01
RMM:   5    -0.115649164345E+04   -0.15924E-04   -0.47855E-04 10841   0.221E-02    0.315E-02
RMM:   6    -0.115649165171E+04   -0.82522E-05   -0.81633E-05  7547   0.132E-02    0.171E-02
RMM:   7    -0.115649166070E+04   -0.89965E-05   -0.92525E-05  7408   0.104E-02    0.106E-02
RMM:   8    -0.115649166558E+04   -0.48716E-05   -0.55004E-05  6949   0.855E-03
  12 F= -.11564917E+04 E0= -.11564917E+04  d E =-.866593E-02  mag=    14.0000
       N       E                     dE             d eps       ncg     rms          rms(c)
DAV:   1    -0.115649013651E+04    0.15242E-02   -0.30615E+00 12880   0.199E+00    0.361E-01
RMM:   2    -0.115649700484E+04   -0.68683E-02   -0.72904E-02 12676   0.338E-01    0.232E-01
RMM:   3    -0.115649697965E+04    0.25190E-04   -0.37212E-03 12977   0.110E-01    0.157E-01
RMM:   4    -0.115649683632E+04    0.14333E-03   -0.84616E-04 12948   0.328E-02    0.887E-02
RMM:   5    -0.115649681221E+04    0.24106E-04   -0.30505E-04  9117   0.194E-02    0.237E-02
RMM:   6    -0.115649681824E+04   -0.60300E-05   -0.64571E-05  7223   0.120E-02    0.241E-02
RMM:   7    -0.115649682215E+04   -0.39078E-05   -0.39217E-05  6979   0.809E-03    0.123E-02
RMM:   8    -0.115649682458E+04   -0.24355E-05   -0.25375E-05  6858   0.752E-03
  13 F= -.11564968E+04 E0= -.11564968E+04  d E =-.515901E-02  mag=    14.0000
       N       E                     dE             d eps       ncg     rms          rms(c)
DAV:   1    -0.115649264748E+04    0.41747E-02   -0.40165E+00 12704   0.228E+00    0.427E-01
RMM:   2    -0.115650182089E+04   -0.91734E-02   -0.94774E-02 12651   0.383E-01    0.261E-01
RMM:   3    -0.115650183839E+04   -0.17506E-04   -0.47215E-03 12766   0.128E-01    0.166E-01
RMM:   4    -0.115650164208E+04    0.19631E-03   -0.11849E-03 13695   0.384E-02    0.837E-02
RMM:   5    -0.115650164210E+04   -0.17375E-07   -0.32700E-04  9475   0.195E-02    0.277E-02
RMM:   6    -0.115650164698E+04   -0.48745E-05   -0.56657E-05  7243   0.119E-02    0.161E-02
RMM:   7    -0.115650165180E+04   -0.48239E-05   -0.46540E-05  7033   0.864E-03    0.100E-02
RMM:   8    -0.115650165450E+04   -0.26987E-05   -0.30588E-05  6806   0.765E-03
  14 F= -.11565017E+04 E0= -.11565017E+04  d E =-.482992E-02  mag=    14.0000
       N       E                     dE             d eps       ncg     rms          rms(c)
DAV:   1    -0.115650065301E+04    0.99879E-03   -0.16603E+00 12896   0.148E+00    0.263E-01
RMM:   2    -0.115650442243E+04   -0.37694E-02   -0.39978E-02 12734   0.251E-01    0.161E-01
RMM:   3    -0.115650440471E+04    0.17716E-04   -0.19805E-03 12657   0.812E-02    0.104E-01
RMM:   4    -0.115650432054E+04    0.84172E-04   -0.48969E-04 10741   0.254E-02    0.537E-02
RMM:   5    -0.115650431877E+04    0.17725E-05   -0.12340E-04  7310   0.156E-02    0.143E-02
RMM:   6    -0.115650432376E+04   -0.49878E-05   -0.40855E-05  7057   0.976E-03    0.998E-03
RMM:   7    -0.115650432662E+04   -0.28661E-05   -0.26066E-05  6797   0.693E-03    0.675E-03
RMM:   8    -0.115650432849E+04   -0.18639E-05   -0.16235E-05  6617   0.601E-03
  15 F= -.11565043E+04 E0= -.11565043E+04  d E =-.267399E-02  mag=    14.0000
       N       E                     dE             d eps       ncg     rms          rms(c)
DAV:   1    -0.115650268486E+04    0.16418E-02   -0.18739E+00 12768   0.158E+00    0.275E-01
RMM:   2    -0.115650689434E+04   -0.42095E-02   -0.44857E-02 12665   0.266E-01    0.170E-01
RMM:   3    -0.115650688097E+04    0.13367E-04   -0.22474E-03 12569   0.882E-02    0.111E-01
RMM:   4    -0.115650679187E+04    0.89105E-04   -0.55677E-04 11190   0.270E-02    0.588E-02
RMM:   5    -0.115650678638E+04    0.54868E-05   -0.13871E-04  7368   0.162E-02    0.206E-02
RMM:   6    -0.115650679151E+04   -0.51295E-05   -0.43451E-05  7096   0.104E-02    0.151E-02
RMM:   7    -0.115650679450E+04   -0.29854E-05   -0.27754E-05  6817   0.704E-03    0.882E-03
RMM:   8    -0.115650679618E+04   -0.16834E-05   -0.16926E-05  6643   0.641E-03
  16 F= -.11565068E+04 E0= -.11565068E+04  d E =-.246769E-02  mag=    14.0000
       N       E                     dE             d eps       ncg     rms          rms(c)
DAV:   1    -0.115650468559E+04    0.21089E-02   -0.18544E+00 12768   0.157E+00    0.271E-01
RMM:   2    -0.115650883712E+04   -0.41515E-02   -0.44275E-02 12675   0.263E-01    0.165E-01
RMM:   3    -0.115650881336E+04    0.23756E-04   -0.21989E-03 12537   0.882E-02    0.107E-01
RMM:   4    -0.115650872355E+04    0.89811E-04   -0.55888E-04 11197   0.272E-02    0.519E-02
RMM:   5    -0.115650872676E+04   -0.32100E-05   -0.11857E-04  7281   0.156E-02    0.146E-02
RMM:   6    -0.115650873215E+04   -0.53856E-05   -0.42213E-05  7083   0.985E-03    0.106E-02
RMM:   7    -0.115650873505E+04   -0.29035E-05   -0.27063E-05  6789   0.706E-03    0.725E-03
RMM:   8    -0.115650873694E+04   -0.18877E-05   -0.17163E-05  6551   0.621E-03
  17 F= -.11565087E+04 E0= -.11565087E+04  d E =-.194076E-02  mag=    14.0000
       N       E                     dE             d eps       ncg     rms          rms(c)
DAV:   1    -0.115650743902E+04    0.12960E-02   -0.12048E+00 12784   0.126E+00    0.213E-01
RMM:   2    -0.115651009781E+04   -0.26588E-02   -0.28801E-02 12640   0.212E-01    0.131E-01
RMM:   3    -0.115651007419E+04    0.23612E-04   -0.14475E-03 12044   0.719E-02    0.852E-02
RMM:   4    -0.115651001601E+04    0.58185E-04   -0.38229E-04  9425   0.225E-02    0.422E-02
RMM:   5    -0.115651001602E+04   -0.68976E-08   -0.80028E-05  7175   0.135E-02    0.113E-02
RMM:   6    -0.115651002016E+04   -0.41438E-05   -0.32195E-05  7007   0.829E-03    0.868E-03
RMM:   7    -0.115651002226E+04   -0.21021E-05   -0.19723E-05  6681   0.636E-03    0.621E-03
RMM:   8    -0.115651002378E+04   -0.15187E-05   -0.12881E-05  6457   0.516E-03
  18 F= -.11565100E+04 E0= -.11565100E+04  d E =-.128684E-02  mag=    14.0000
       N       E                     dE             d eps       ncg     rms          rms(c)
DAV:   1    -0.115650966129E+04    0.36098E-03   -0.54543E-01 12928   0.854E-01    0.147E-01
RMM:   2    -0.115651087180E+04   -0.12105E-02   -0.13251E-02 12713   0.144E-01    0.926E-02
RMM:   3    -0.115651085251E+04    0.19285E-04   -0.62183E-04  9999   0.472E-02    0.614E-02
RMM:   4    -0.115651082275E+04    0.29765E-04   -0.14900E-04  7350   0.160E-02    0.313E-02
RMM:   5    -0.115651082350E+04   -0.74819E-06   -0.50688E-05  7061   0.104E-02    0.132E-02
RMM:   6    -0.115651082592E+04   -0.24272E-05   -0.20686E-05  6833   0.674E-03    0.107E-02
RMM:   7    -0.115651082724E+04   -0.13142E-05   -0.12278E-05  6450   0.507E-03    0.647E-03
RMM:   8    -0.115651082806E+04   -0.82726E-06   -0.77627E-06  5905   0.419E-03
  19 F= -.11565108E+04 E0= -.11565108E+04  d E =-.804284E-03  mag=    14.0000
       N       E                     dE             d eps       ncg     rms          rms(c)
DAV:   1    -0.115651057251E+04    0.25473E-03   -0.39808E-01 12720   0.729E-01    0.127E-01
RMM:   2    -0.115651145772E+04   -0.88521E-03   -0.96227E-03 12585   0.123E-01    0.779E-02
RMM:   3    -0.115651144444E+04    0.13282E-04   -0.43837E-04  9025   0.410E-02    0.511E-02
RMM:   4    -0.115651142307E+04    0.21374E-04   -0.11054E-04  7142   0.140E-02    0.273E-02
RMM:   5    -0.115651142489E+04   -0.18200E-05   -0.36012E-05  6978   0.889E-03    0.188E-02
RMM:   6    -0.115651142678E+04   -0.18976E-05   -0.16685E-05  6760   0.600E-03    0.947E-03
RMM:   7    -0.115651142785E+04   -0.10651E-05   -0.95837E-06  6144   0.464E-03    0.679E-03
RMM:   8    -0.115651142847E+04   -0.61968E-06   -0.58922E-06  5102   0.371E-03
  20 F= -.11565114E+04 E0= -.11565114E+04  d E =-.600403E-03  mag=    14.0000
       N       E                     dE             d eps       ncg     rms          rms(c)
DAV:   1    -0.115651136078E+04    0.67064E-04   -0.23332E-01 12584   0.560E-01    0.100E-01
RMM:   2    -0.115651188895E+04   -0.52816E-03   -0.56620E-03 12467   0.942E-02    0.607E-02
RMM:   3    -0.115651188301E+04    0.59328E-05   -0.25240E-04  8037   0.324E-02    0.391E-02
RMM:   4    -0.115651187212E+04    0.10898E-04   -0.70732E-05  7032   0.109E-02    0.214E-02
RMM:   5    -0.115651187360E+04   -0.14823E-05   -0.22746E-05  6827   0.700E-03    0.926E-03
RMM:   6    -0.115651187490E+04   -0.13013E-05   -0.10725E-05  6326   0.476E-03    0.546E-03
RMM:   7    -0.115651187558E+04   -0.68027E-06   -0.60161E-06  5275   0.379E-03    0.367E-03
RMM:   8    -0.115651187601E+04   -0.43439E-06   -0.35924E-06  4409   0.309E-03
  21 F= -.11565119E+04 E0= -.11565119E+04  d E =-.447546E-03  mag=    14.0000
       N       E                     dE             d eps       ncg     rms          rms(c)
DAV:   1    -0.115651169802E+04    0.17756E-03   -0.27759E-01 12576   0.610E-01    0.106E-01
RMM:   2    -0.115651232085E+04   -0.62283E-03   -0.67206E-03 12650   0.103E-01    0.651E-02
RMM:   3    -0.115651231098E+04    0.98687E-05   -0.29130E-04  8313   0.338E-02    0.425E-02
RMM:   4    -0.115651229789E+04    0.13083E-04   -0.76233E-05  7050   0.118E-02    0.227E-02
RMM:   5    -0.115651229921E+04   -0.13118E-05   -0.26358E-05  6858   0.752E-03    0.922E-03
RMM:   6    -0.115651230059E+04   -0.13863E-05   -0.11466E-05  6484   0.505E-03    0.648E-03
RMM:   7    -0.115651230132E+04   -0.73115E-06   -0.64576E-06  5562   0.383E-03    0.333E-03
RMM:   8    -0.115651230177E+04   -0.44888E-06   -0.37307E-06  4490   0.322E-03
  22 F= -.11565123E+04 E0= -.11565123E+04  d E =-.425759E-03  mag=    14.0000
       N       E                     dE             d eps       ncg     rms          rms(c)
DAV:   1    -0.115651229969E+04    0.16368E-05   -0.14630E-01 12512   0.443E-01    0.816E-02
RMM:   2    -0.115651263227E+04   -0.33258E-03   -0.35450E-03 12447   0.747E-02    0.499E-02
RMM:   3    -0.115651262754E+04    0.47337E-05   -0.14625E-04  7307   0.253E-02    0.316E-02
RMM:   4    -0.115651262147E+04    0.60653E-05   -0.48033E-05  6926   0.903E-03    0.203E-02
RMM:   5    -0.115651262203E+04   -0.56125E-06   -0.14380E-05  6599   0.562E-03    0.118E-02
RMM:   6    -0.115651262286E+04   -0.82550E-06   -0.71846E-06  5642   0.395E-03    0.548E-03
RMM:   7    -0.115651262329E+04   -0.43721E-06   -0.37474E-06  4769   0.324E-03    0.389E-03
RMM:   8    -0.115651262353E+04   -0.23675E-06   -0.21060E-06  3683   0.258E-03
  23 F= -.11565126E+04 E0= -.11565126E+04  d E =-.321758E-03  mag=    14.0000
       N       E                     dE             d eps       ncg     rms          rms(c)
DAV:   1    -0.115651233079E+04    0.29250E-03   -0.31024E-01 12624   0.644E-01    0.113E-01
RMM:   2    -0.115651303089E+04   -0.70010E-03   -0.74839E-03 12712   0.108E-01    0.682E-02
RMM:   3    -0.115651302048E+04    0.10408E-04   -0.32026E-04  8347   0.354E-02    0.442E-02
RMM:   4    -0.115651300550E+04    0.14984E-04   -0.82081E-05  7055   0.125E-02    0.241E-02
RMM:   5    -0.115651300745E+04   -0.19521E-05   -0.27934E-05  6865   0.791E-03    0.144E-02
RMM:   6    -0.115651300899E+04   -0.15346E-05   -0.12684E-05  6558   0.525E-03    0.690E-03
RMM:   7    -0.115651300978E+04   -0.79331E-06   -0.69420E-06  5532   0.409E-03    0.484E-03
RMM:   8    -0.115651301022E+04   -0.44312E-06   -0.39689E-06  4549   0.323E-03
  24 F= -.11565130E+04 E0= -.11565130E+04  d E =-.386691E-03  mag=    14.0000
       N       E                     dE             d eps       ncg     rms          rms(c)
DAV:   1    -0.115651299628E+04    0.13498E-04   -0.12862E-01 12448   0.415E-01    0.735E-02
RMM:   2    -0.115651328577E+04   -0.28948E-03   -0.31326E-03 12445   0.699E-02    0.450E-02
RMM:   3    -0.115651327957E+04    0.61933E-05   -0.12472E-04  7159   0.235E-02    0.291E-02
RMM:   4    -0.115651327462E+04    0.49538E-05   -0.44956E-05  6898   0.857E-03    0.177E-02
RMM:   5    -0.115651327549E+04   -0.87245E-06   -0.12195E-05  6476   0.527E-03    0.114E-02
RMM:   6    -0.115651327620E+04   -0.70869E-06   -0.62102E-06  5398   0.368E-03    0.511E-03
RMM:   7    -0.115651327658E+04   -0.38250E-06   -0.32877E-06  4562   0.310E-03    0.377E-03
RMM:   8    -0.115651327678E+04   -0.19943E-06   -0.18738E-06  3501   0.248E-03
  25 F= -.11565133E+04 E0= -.11565133E+04  d E =-.266559E-03  mag=    14.0000
