       N       E                     dE             d eps       ncg     rms          rms(c)
DAV:   1    -0.115720731430E+04   -0.11572E+04   -0.30579E-06  7144   0.294E-03    0.209E-03
RMM:   2    -0.115720731492E+04   -0.62694E-06   -0.11903E-06  3029   0.220E-03    0.213E-03
RMM:   3    -0.115720731511E+04   -0.18567E-06   -0.20947E-07  1623   0.163E-03    0.189E-03
RMM:   4    -0.115720731531E+04   -0.19722E-06   -0.13161E-07  1352   0.165E-03    0.202E-03
RMM:   5    -0.115720731515E+04    0.15514E-06   -0.27099E-08  1065   0.156E-03    0.200E-03
RMM:   6    -0.115720731506E+04    0.92215E-07   -0.17769E-08   913   0.155E-03    0.213E-03
RMM:   7    -0.115720731711E+04   -0.20516E-05   -0.43412E-06  3624   0.316E-03    0.232E-03
RMM:   8    -0.115720731752E+04   -0.41237E-06   -0.70845E-07  1602   0.179E-03
   1 F= -.11572073E+04 E0= -.11572073E+04  d E =-.115721E+04  mag=    14.0000
       N       E                     dE             d eps       ncg     rms          rms(c)
DAV:   1    -0.115720759119E+04   -0.27408E-03   -0.52513E-01 12864   0.849E-01    0.264E-01
RMM:   2    -0.115720854972E+04   -0.95853E-03   -0.16784E-02 12331   0.170E-01    0.258E-01
RMM:   3    -0.115720844915E+04    0.10057E-03   -0.88657E-04 11808   0.544E-02    0.168E-01
RMM:   4    -0.115720829936E+04    0.14979E-03   -0.47321E-04 10524   0.244E-02    0.924E-02
RMM:   5    -0.115720824928E+04    0.50080E-04   -0.11461E-04  8176   0.162E-02    0.305E-02
RMM:   6    -0.115720825221E+04   -0.29281E-05   -0.26212E-05  7078   0.787E-03    0.195E-02
RMM:   7    -0.115720825316E+04   -0.95532E-06   -0.12824E-05  6508   0.525E-03    0.145E-02
RMM:   8    -0.115720825407E+04   -0.91101E-06   -0.72957E-06  6372   0.419E-03
   2 F= -.11572083E+04 E0= -.11572083E+04  d E =-.936551E-03  mag=    14.0000
       N       E                     dE             d eps       ncg     rms          rms(c)
DAV:   1    -0.115720934922E+04   -0.10961E-02   -0.12484E-01 12288   0.407E-01    0.128E-01
RMM:   2    -0.115720947979E+04   -0.13058E-03   -0.43911E-03 12192   0.854E-02    0.144E-01
RMM:   3    -0.115720942687E+04    0.52925E-04   -0.16535E-04  7998   0.257E-02    0.102E-01
RMM:   4    -0.115720937161E+04    0.55262E-04   -0.14895E-04  7431   0.144E-02    0.533E-02
RMM:   5    -0.115720935532E+04    0.16286E-04   -0.48113E-05  7040   0.971E-03    0.323E-02
RMM:   6    -0.115720935595E+04   -0.62957E-06   -0.13170E-05  6108   0.557E-03    0.159E-02
RMM:   7    -0.115720935609E+04   -0.13737E-06   -0.62333E-06  5274   0.363E-03    0.119E-02
RMM:   8    -0.115720935638E+04   -0.29225E-06   -0.33205E-06  4999   0.305E-03
   3 F= -.11572094E+04 E0= -.11572094E+04  d E =-.110231E-02  mag=    14.0000
       N       E                     dE             d eps       ncg     rms          rms(c)
DAV:   1    -0.115720964176E+04   -0.28567E-03   -0.14183E-01 12544   0.442E-01    0.947E-02
RMM:   2    -0.115720996043E+04   -0.31867E-03   -0.36576E-03 12755   0.778E-02    0.706E-02
RMM:   3    -0.115720994993E+04    0.10501E-04   -0.14516E-04  7327   0.248E-02    0.447E-02
RMM:   4    -0.115720993974E+04    0.10187E-04   -0.56202E-05  6941   0.103E-02    0.235E-02
RMM:   5    -0.115720993940E+04    0.34072E-06   -0.18530E-05  6746   0.644E-03    0.127E-02
RMM:   6    -0.115720994020E+04   -0.79951E-06   -0.71588E-06  6202   0.422E-03    0.672E-03
RMM:   7    -0.115720994058E+04   -0.38403E-06   -0.34873E-06  4999   0.308E-03    0.410E-03
RMM:   8    -0.115720994080E+04   -0.22154E-06   -0.19374E-06  3800   0.254E-03
   4 F= -.11572099E+04 E0= -.11572099E+04  d E =-.584423E-03  mag=    14.0000
       N       E                     dE             d eps       ncg     rms          rms(c)
DAV:   1    -0.115721018715E+04   -0.24656E-03   -0.37857E-02 12224   0.226E-01    0.515E-02
RMM:   2    -0.115721026611E+04   -0.78964E-04   -0.99982E-04 12060   0.403E-02    0.388E-02
RMM:   3    -0.115721026164E+04    0.44704E-05   -0.45077E-05  6774   0.145E-02    0.245E-02
RMM:   4    -0.115721025777E+04    0.38658E-05   -0.23014E-05  6627   0.591E-03    0.137E-02
RMM:   5    -0.115721025745E+04    0.32269E-06   -0.58130E-06  5726   0.389E-03    0.821E-03
RMM:   6    -0.115721025771E+04   -0.25757E-06   -0.24785E-06  3982   0.253E-03    0.443E-03
RMM:   7    -0.115721025782E+04   -0.10896E-06   -0.10384E-06  2906   0.241E-03    0.232E-03
RMM:   8    -0.115721025787E+04   -0.55385E-07   -0.36778E-07  2147   0.202E-03
   5 F= -.11572103E+04 E0= -.11572103E+04  d E =-.317070E-03  mag=    14.0000
