       N       E                     dE             d eps       ncg     rms          rms(c)
DAV:   1    -0.116280894265E+04   -0.11628E+04   -0.34993E-05  7688   0.197E-02    0.309E-02
RMM:   2    -0.116280898117E+04   -0.38520E-04   -0.54293E-05  6002   0.110E-02    0.459E-02
RMM:   3    -0.116280899302E+04   -0.11850E-04   -0.72809E-06  4107   0.312E-03    0.241E-02
RMM:   4    -0.116280900929E+04   -0.16275E-04   -0.36019E-06  3624   0.277E-03    0.252E-02
RMM:   5    -0.116280901002E+04   -0.72324E-06   -0.54475E-07  1980   0.176E-03    0.245E-02
RMM:   6    -0.116280902746E+04   -0.17443E-04   -0.36562E-06  3442   0.274E-03    0.257E-02
RMM:   7    -0.116280902255E+04    0.49114E-05   -0.50269E-07  2233   0.187E-03    0.252E-02
RMM:   8    -0.116280905932E+04   -0.36770E-04   -0.11427E-05  4295   0.453E-03
   1 F= -.11628091E+04 E0= -.11628090E+04  d E =-.116281E+04  mag=     5.9999
       N       E                     dE             d eps       ncg     rms          rms(c)
DAV:   1    -0.116280797864E+04    0.10439E-02   -0.68685E-01 12560   0.869E-01    0.483E-01
RMM:   2    -0.116281106147E+04   -0.30828E-02   -0.18703E-02 12349   0.175E-01    0.306E-01
RMM:   3    -0.116281138016E+04   -0.31869E-03   -0.11678E-03 11650   0.592E-02    0.148E-01
RMM:   4    -0.116281134607E+04    0.34091E-04   -0.55222E-04 10509   0.282E-02    0.819E-02
RMM:   5    -0.116281145931E+04   -0.11325E-03   -0.21445E-04  8260   0.201E-02    0.492E-02
RMM:   6    -0.116281154130E+04   -0.81991E-04   -0.72841E-05  7271   0.987E-03    0.412E-02
RMM:   7    -0.116281166831E+04   -0.12700E-03   -0.72720E-05  7146   0.104E-02    0.413E-02
RMM:   8    -0.116281179445E+04   -0.12614E-03   -0.72188E-05  6908   0.827E-03    0.358E-02
RMM:   9    -0.116281192438E+04   -0.12993E-03   -0.66992E-05  6883   0.767E-03    0.364E-02
RMM:  10    -0.116281198593E+04   -0.61544E-04   -0.27966E-05  5877   0.479E-03
   2 F= -.11628120E+04 E0= -.11628120E+04  d E =-.292661E-02  mag=     5.9999
       N       E                     dE             d eps       ncg     rms          rms(c)
DAV:   1    -0.116281295107E+04   -0.10267E-02   -0.14840E-01 12640   0.412E-01    0.212E-01
RMM:   2    -0.116281355771E+04   -0.60664E-03   -0.44802E-03 12167   0.855E-02    0.138E-01
RMM:   3    -0.116281364628E+04   -0.88571E-04   -0.23444E-04  8414   0.296E-02    0.763E-02
RMM:   4    -0.116281375580E+04   -0.10952E-03   -0.22237E-04  8045   0.182E-02    0.468E-02
RMM:   5    -0.116281387543E+04   -0.11963E-03   -0.11794E-04  7270   0.118E-02    0.442E-02
RMM:   6    -0.116281393398E+04   -0.58550E-04   -0.41496E-05  6361   0.700E-03    0.386E-02
RMM:   7    -0.116281399734E+04   -0.63360E-04   -0.25110E-05  6038   0.592E-03    0.400E-02
RMM:   8    -0.116281403962E+04   -0.42281E-04   -0.14711E-05  5299   0.386E-03
   3 F= -.11628140E+04 E0= -.11628140E+04  d E =-.205370E-02  mag=     5.9999
       N       E                     dE             d eps       ncg     rms          rms(c)
DAV:   1    -0.116281327842E+04    0.71892E-03   -0.30320E-01 12424   0.541E-01    0.368E-01
RMM:   2    -0.116281547581E+04   -0.21974E-02   -0.64559E-03 12321   0.998E-02    0.191E-01
RMM:   3    -0.116281586900E+04   -0.39320E-03   -0.40057E-04  8769   0.370E-02    0.821E-02
RMM:   4    -0.116281607546E+04   -0.20645E-03   -0.16167E-04  7479   0.172E-02    0.572E-02
RMM:   5    -0.116281630554E+04   -0.23008E-03   -0.14715E-04  7332   0.124E-02    0.468E-02
RMM:   6    -0.116281646812E+04   -0.16258E-03   -0.10010E-04  6778   0.944E-03    0.477E-02
RMM:   7    -0.116281657225E+04   -0.10413E-03   -0.47752E-05  6184   0.638E-03    0.455E-02
RMM:   8    -0.116281659389E+04   -0.21637E-04   -0.12105E-05  5255   0.437E-03
   4 F= -.11628166E+04 E0= -.11628166E+04  d E =-.255427E-02  mag=     5.9999
       N       E                     dE             d eps       ncg     rms          rms(c)
DAV:   1    -0.116281639810E+04    0.17415E-03   -0.14623E-01 12432   0.377E-01    0.255E-01
RMM:   2    -0.116281753683E+04   -0.11387E-02   -0.30828E-03 12419   0.698E-02    0.138E-01
RMM:   3    -0.116281779494E+04   -0.25811E-03   -0.19429E-04  7645   0.258E-02    0.721E-02
RMM:   4    -0.116281802839E+04   -0.23345E-03   -0.14680E-04  7279   0.137E-02    0.573E-02
RMM:   5    -0.116281833904E+04   -0.31065E-03   -0.16698E-04  7322   0.127E-02    0.523E-02
RMM:   6    -0.116281857926E+04   -0.24022E-03   -0.12650E-04  6762   0.104E-02    0.522E-02
RMM:   7    -0.116281868328E+04   -0.10402E-03   -0.46552E-05  6011   0.624E-03    0.508E-02
RMM:   8    -0.116281901702E+04   -0.33374E-03   -0.16819E-04  7076   0.147E-02    0.535E-02
RMM:   9    -0.116281921199E+04   -0.19497E-03   -0.10979E-04  6268   0.950E-03    0.532E-02
RMM:  10    -0.116281897567E+04    0.23631E-03   -0.54386E-05  6242   0.120E-02    0.531E-02
RMM:  11    -0.116281938283E+04   -0.40715E-03   -0.14809E-04  6939   0.167E-02    0.541E-02
RMM:  12    -0.116282102424E+04   -0.16414E-02   -0.45156E-03 10507   0.782E-02    0.501E-02
RMM:  13    -0.116282302568E+04   -0.20014E-02   -0.11919E-02 11059   0.126E-01    0.732E-02
RMM:  14    -0.116282366218E+04   -0.63650E-03   -0.20936E-03 10125   0.399E-02    0.748E-02
RMM:  15    -0.116282333990E+04    0.32228E-03   -0.33998E-04  8011   0.257E-02    0.672E-02
RMM:  16    -0.116282305265E+04    0.28725E-03   -0.31298E-04  7740   0.213E-02    0.620E-02
RMM:  17    -0.116282396817E+04   -0.91552E-03   -0.10010E-03  9343   0.437E-02    0.764E-02
RMM:  18    -0.116282410346E+04   -0.13529E-03   -0.13333E-04  6915   0.117E-02    0.771E-02
RMM:  19    -0.116282427424E+04   -0.17077E-03   -0.11671E-04  6517   0.879E-03    0.791E-02
RMM:  20    -0.116282401710E+04    0.25714E-03   -0.87589E-05  6599   0.144E-02    0.800E-02
RMM:  21    -0.116282395808E+04    0.59021E-04   -0.22988E-05  4966   0.482E-03
   5 F= -.11628240E+04 E0= -.11628239E+04  d E =-.736419E-02  mag=     5.9999
       N       E                     dE             d eps       ncg     rms          rms(c)
DAV:   1    -0.116281466058E+04    0.93565E-02   -0.64462E-01 12608   0.759E-01    0.562E-01
RMM:   2    -0.116281941586E+04   -0.47553E-02   -0.13525E-02 12202   0.143E-01    0.291E-01
RMM:   3    -0.116282019306E+04   -0.77720E-03   -0.92554E-04 10564   0.515E-02    0.121E-01
RMM:   4    -0.116282030310E+04   -0.11004E-03   -0.20675E-04  7860   0.187E-02    0.640E-02
RMM:   5    -0.116282043682E+04   -0.13372E-03   -0.15412E-04  7434   0.137E-02    0.368E-02
RMM:   6    -0.116282049160E+04   -0.54780E-04   -0.36206E-05  6906   0.786E-03    0.306E-02
RMM:   7    -0.116282060969E+04   -0.11809E-03   -0.67089E-05  6615   0.916E-03    0.317E-02
RMM:   8    -0.116282076007E+04   -0.15038E-03   -0.10790E-04  6876   0.994E-03    0.304E-02
RMM:   9    -0.116282083993E+04   -0.79861E-04   -0.55310E-05  5932   0.606E-03
   6 F= -.11628208E+04 E0= -.11628208E+04  d E =0.311815E-02  mag=     5.9999
       N       E                     dE             d eps       ncg     rms          rms(c)
DAV:   1    -0.116282175393E+04   -0.99386E-03   -0.21407E-01 12464   0.442E-01    0.319E-01
RMM:   2    -0.116282338072E+04   -0.16268E-02   -0.41864E-03 12316   0.803E-02    0.164E-01
RMM:   3    -0.116282368373E+04   -0.30300E-03   -0.26048E-04  7944   0.297E-02    0.672E-02
RMM:   4    -0.116282382857E+04   -0.14484E-03   -0.12115E-04  7043   0.132E-02    0.464E-02
RMM:   5    -0.116282398206E+04   -0.15349E-03   -0.90097E-05  6640   0.926E-03    0.376E-02
RMM:   6    -0.116282409653E+04   -0.11446E-03   -0.56761E-05  6006   0.706E-03    0.371E-02
RMM:   7    -0.116282417063E+04   -0.74102E-04   -0.30612E-05  5314   0.510E-03    0.356E-02
RMM:   8    -0.116282433403E+04   -0.16340E-03   -0.76894E-05  6343   0.938E-03    0.375E-02
RMM:   9    -0.116282435340E+04   -0.19367E-04   -0.16914E-05  4993   0.440E-03
   7 F= -.11628244E+04 E0= -.11628243E+04  d E =-.351347E-02  mag=     5.9999
       N       E                     dE             d eps       ncg     rms          rms(c)
DAV:   1    -0.116282325985E+04    0.10742E-02   -0.74697E-01 12624   0.843E-01    0.579E-01
RMM:   2    -0.116282854931E+04   -0.52895E-02   -0.15412E-02 12489   0.154E-01    0.301E-01
RMM:   3    -0.116282942947E+04   -0.88015E-03   -0.96680E-04 10916   0.545E-02    0.117E-01
RMM:   4    -0.116282969080E+04   -0.26133E-03   -0.30014E-04  8104   0.240E-02    0.733E-02
RMM:   5    -0.116282995356E+04   -0.26276E-03   -0.21285E-04  7511   0.162E-02    0.555E-02
RMM:   6    -0.116283011919E+04   -0.16562E-03   -0.10791E-04  7105   0.114E-02    0.501E-02
RMM:   7    -0.116283026630E+04   -0.14712E-03   -0.71266E-05  6873   0.807E-03    0.477E-02
RMM:   8    -0.116283045992E+04   -0.19362E-03   -0.80339E-05  6776   0.896E-03    0.501E-02
RMM:   9    -0.116283052578E+04   -0.65858E-04   -0.28492E-05  5798   0.524E-03
   8 F= -.11628305E+04 E0= -.11628305E+04  d E =-.617238E-02  mag=     5.9999
       N       E                     dE             d eps       ncg     rms          rms(c)
DAV:   1    -0.116275713537E+04    0.73325E-01   -0.10102E+01 12512   0.305E+00    0.218E+00
RMM:   2    -0.116282991033E+04   -0.72775E-01   -0.20741E-01 12601   0.573E-01    0.120E+00
RMM:   3    -0.116284137287E+04   -0.11463E-01   -0.13083E-02 12644   0.194E-01    0.416E-01
RMM:   4    -0.116284217306E+04   -0.80019E-03   -0.33564E-03 13536   0.718E-02    0.235E-01
RMM:   5    -0.116284320980E+04   -0.10367E-02   -0.16037E-03 11088   0.416E-02    0.134E-01
RMM:   6    -0.116284383085E+04   -0.62105E-03   -0.45514E-04  8435   0.256E-02    0.962E-02
RMM:   7    -0.116284434972E+04   -0.51887E-03   -0.28691E-04  7933   0.179E-02    0.884E-02
RMM:   8    -0.116284531874E+04   -0.96902E-03   -0.57396E-04  8360   0.260E-02    0.873E-02
RMM:   9    -0.116284615226E+04   -0.83352E-03   -0.56816E-04  8383   0.231E-02    0.828E-02
RMM:  10    -0.116284828986E+04   -0.21376E-02   -0.27617E-03  9845   0.571E-02    0.745E-02
RMM:  11    -0.116285211770E+04   -0.38278E-02   -0.15915E-02 11140   0.142E-01    0.727E-02
RMM:  12    -0.116285297730E+04   -0.85960E-03   -0.20903E-03  9894   0.374E-02    0.678E-02
RMM:  13    -0.116285297728E+04    0.16007E-07   -0.11070E-04  7510   0.136E-02
   9 F= -.11628530E+04 E0= -.11628530E+04  d E =-.224515E-01  mag=     5.9999
       N       E                     dE             d eps       ncg     rms          rms(c)
DAV:   1    -0.116283465168E+04    0.18326E-01   -0.27067E+00 12560   0.160E+00    0.111E+00
RMM:   2    -0.116285359824E+04   -0.18947E-01   -0.57990E-02 12431   0.302E-01    0.603E-01
RMM:   3    -0.116285676929E+04   -0.31711E-02   -0.35996E-03 12345   0.105E-01    0.238E-01
RMM:   4    -0.116285751106E+04   -0.74178E-03   -0.14208E-03 11228   0.462E-02    0.140E-01
RMM:   5    -0.116285824746E+04   -0.73639E-03   -0.65499E-04  8962   0.286E-02    0.970E-02
RMM:   6    -0.116285872415E+04   -0.47669E-03   -0.28146E-04  7871   0.189E-02    0.797E-02
RMM:   7    -0.116285927501E+04   -0.55086E-03   -0.28177E-04  7858   0.165E-02    0.743E-02
RMM:   8    -0.116286067031E+04   -0.13953E-02   -0.13064E-03  9003   0.376E-02    0.716E-02
RMM:   9    -0.116286181384E+04   -0.11435E-02   -0.13653E-03  8903   0.358E-02    0.644E-02
RMM:  10    -0.116286347501E+04   -0.16612E-02   -0.28608E-03  9481   0.538E-02    0.560E-02
RMM:  11    -0.116286596474E+04   -0.24897E-02   -0.12798E-02 10918   0.119E-01    0.585E-02
RMM:  12    -0.116286660616E+04   -0.64142E-03   -0.16087E-03  9266   0.318E-02    0.506E-02
RMM:  13    -0.116286662088E+04   -0.14720E-04   -0.97098E-05  7396   0.132E-02
  10 F= -.11628666E+04 E0= -.11628666E+04  d E =-.136436E-01  mag=     5.9998
       N       E                     dE             d eps       ncg     rms          rms(c)
DAV:   1    -0.116286608158E+04    0.52458E-03   -0.26632E-01 12816   0.513E-01    0.335E-01
RMM:   2    -0.116286800582E+04   -0.19242E-02   -0.60897E-03 12294   0.977E-02    0.183E-01
RMM:   3    -0.116286839134E+04   -0.38552E-03   -0.38374E-04  8792   0.356E-02    0.840E-02
RMM:   4    -0.116286870227E+04   -0.31093E-03   -0.31640E-04  7817   0.199E-02    0.560E-02
RMM:   5    -0.116286892337E+04   -0.22109E-03   -0.16781E-04  7286   0.121E-02    0.469E-02
RMM:   6    -0.116286906980E+04   -0.14643E-03   -0.78029E-05  6758   0.878E-03    0.437E-02
RMM:   7    -0.116286921775E+04   -0.14795E-03   -0.66320E-05  6229   0.697E-03    0.415E-02
RMM:   8    -0.116286962213E+04   -0.40437E-03   -0.29222E-04  7382   0.165E-02    0.426E-02
RMM:   9    -0.116287026774E+04   -0.64561E-03   -0.10018E-03  8525   0.301E-02    0.395E-02
RMM:  10    -0.116287092387E+04   -0.65613E-03   -0.15526E-03  8688   0.368E-02    0.322E-02
RMM:  11    -0.116287178036E+04   -0.85649E-03   -0.61778E-03 10083   0.778E-02    0.319E-02
RMM:  12    -0.116287216864E+04   -0.38828E-03   -0.10673E-03  8851   0.260E-02    0.260E-02
RMM:  13    -0.116287215503E+04    0.13607E-04   -0.52598E-05  7006   0.112E-02
  11 F= -.11628722E+04 E0= -.11628721E+04  d E =-.553415E-02  mag=     5.9999
       N       E                     dE             d eps       ncg     rms          rms(c)
DAV:   1    -0.116286959108E+04    0.25776E-02   -0.14231E-01 12368   0.374E-01    0.224E-01
RMM:   2    -0.116287044857E+04   -0.85749E-03   -0.32525E-03 12238   0.709E-02    0.120E-01
RMM:   3    -0.116287057641E+04   -0.12784E-03   -0.18333E-04  7591   0.253E-02    0.541E-02
RMM:   4    -0.116287061096E+04   -0.34557E-04   -0.71299E-05  7000   0.103E-02    0.272E-02
RMM:   5    -0.116287064036E+04   -0.29400E-04   -0.33675E-05  6464   0.617E-03    0.176E-02
RMM:   6    -0.116287065395E+04   -0.13590E-04   -0.11307E-05  5522   0.425E-03    0.141E-02
RMM:   7    -0.116287066817E+04   -0.14214E-04   -0.81803E-06  4404   0.341E-03    0.137E-02
RMM:   8    -0.116287070108E+04   -0.32911E-04   -0.21319E-05  5305   0.484E-03
  12 F= -.11628707E+04 E0= -.11628707E+04  d E =0.145395E-02  mag=     5.9999
       N       E                     dE             d eps       ncg     rms          rms(c)
DAV:   1    -0.116286868098E+04    0.19872E-02   -0.11509E+00 12576   0.111E+00    0.523E-01
RMM:   2    -0.116287380604E+04   -0.51251E-02   -0.25788E-02 12518   0.196E-01    0.282E-01
RMM:   3    -0.116287435173E+04   -0.54569E-03   -0.14882E-03 11985   0.704E-02    0.129E-01
RMM:   4    -0.116287437856E+04   -0.26828E-04   -0.37331E-04  8866   0.242E-02    0.557E-02
RMM:   5    -0.116287444879E+04   -0.70230E-04   -0.14640E-04  7328   0.156E-02    0.274E-02
RMM:   6    -0.116287448219E+04   -0.33400E-04   -0.43239E-05  7010   0.921E-03    0.235E-02
RMM:   7    -0.116287453507E+04   -0.52881E-04   -0.38916E-05  6869   0.765E-03    0.212E-02
RMM:   8    -0.116287461702E+04   -0.81948E-04   -0.69191E-05  6841   0.890E-03
  13 F= -.11628746E+04 E0= -.11628746E+04  d E =-.391594E-02  mag=     5.9998
       N       E                     dE             d eps       ncg     rms          rms(c)
DAV:   1    -0.116287416668E+04    0.36839E-03   -0.55623E-01 12520   0.776E-01    0.372E-01
RMM:   2    -0.116287676484E+04   -0.25982E-02   -0.12581E-02 12517   0.138E-01    0.201E-01
RMM:   3    -0.116287709888E+04   -0.33403E-03   -0.78111E-04 10337   0.485E-02    0.925E-02
RMM:   4    -0.116287717808E+04   -0.79197E-04   -0.22448E-04  7694   0.185E-02    0.489E-02
RMM:   5    -0.116287726304E+04   -0.84960E-04   -0.98020E-05  7182   0.121E-02    0.326E-02
RMM:   6    -0.116287730985E+04   -0.46817E-04   -0.40909E-05  6949   0.826E-03    0.269E-02
RMM:   7    -0.116287736325E+04   -0.53397E-04   -0.33171E-05  6701   0.656E-03    0.244E-02
RMM:   8    -0.116287750656E+04   -0.14331E-03   -0.13670E-04  7033   0.126E-02    0.232E-02
RMM:   9    -0.116287763210E+04   -0.12554E-03   -0.16793E-04  6781   0.116E-02    0.199E-02
RMM:  10    -0.116287773989E+04   -0.10778E-03   -0.15396E-04  6675   0.105E-02    0.184E-02
RMM:  11    -0.116287794962E+04   -0.20973E-03   -0.74829E-04  8200   0.267E-02    0.164E-02
RMM:  12    -0.116287806014E+04   -0.11052E-03   -0.32510E-04  6950   0.148E-02    0.143E-02
RMM:  13    -0.116287812266E+04   -0.62516E-04   -0.13739E-04  6613   0.100E-02
  14 F= -.11628781E+04 E0= -.11628781E+04  d E =-.350564E-02  mag=     5.9998
       N       E                     dE             d eps       ncg     rms          rms(c)
DAV:   1    -0.116287833200E+04   -0.27186E-03   -0.25938E-01 12448   0.530E-01    0.249E-01
RMM:   2    -0.116287953134E+04   -0.11993E-02   -0.59068E-03 12485   0.940E-02    0.133E-01
RMM:   3    -0.116287966977E+04   -0.13843E-03   -0.31982E-04  8304   0.332E-02    0.604E-02
RMM:   4    -0.116287969895E+04   -0.29180E-04   -0.95775E-05  7167   0.128E-02    0.293E-02
RMM:   5    -0.116287973351E+04   -0.34556E-04   -0.47269E-05  6951   0.802E-03    0.188E-02
RMM:   6    -0.116287975121E+04   -0.17703E-04   -0.17357E-05  6513   0.567E-03    0.166E-02
RMM:   7    -0.116287976963E+04   -0.18418E-04   -0.12589E-05  5520   0.435E-03    0.155E-02
RMM:   8    -0.116287980438E+04   -0.34755E-04   -0.23019E-05  5879   0.519E-03
  15 F= -.11628798E+04 E0= -.11628798E+04  d E =-.168173E-02  mag=     5.9998
       N       E                     dE             d eps       ncg     rms          rms(c)
DAV:   1    -0.116287925304E+04    0.51659E-03   -0.46418E-01 12504   0.718E-01    0.325E-01
RMM:   2    -0.116288134973E+04   -0.20967E-02   -0.10739E-02 12636   0.127E-01    0.174E-01
RMM:   3    -0.116288158765E+04   -0.23792E-03   -0.56860E-04  9726   0.428E-02    0.781E-02
RMM:   4    -0.116288162245E+04   -0.34798E-04   -0.14018E-04  7373   0.163E-02    0.389E-02
RMM:   5    -0.116288167166E+04   -0.49207E-04   -0.72545E-05  7059   0.104E-02    0.266E-02
RMM:   6    -0.116288169690E+04   -0.25246E-04   -0.26118E-05  6844   0.717E-03    0.208E-02
RMM:   7    -0.116288172205E+04   -0.25142E-04   -0.17629E-05  6375   0.522E-03    0.193E-02
RMM:   8    -0.116288177087E+04   -0.48827E-04   -0.30534E-05  6324   0.633E-03
  16 F= -.11628818E+04 E0= -.11628817E+04  d E =-.196649E-02  mag=     5.9998
       N       E                     dE             d eps       ncg     rms          rms(c)
DAV:   1    -0.116288089664E+04    0.82541E-03   -0.45066E-01 12448   0.714E-01    0.299E-01
RMM:   2    -0.116288275759E+04   -0.18609E-02   -0.10288E-02 12663   0.124E-01    0.162E-01
RMM:   3    -0.116288294541E+04   -0.18782E-03   -0.54048E-04  9554   0.427E-02    0.763E-02
RMM:   4    -0.116288298139E+04   -0.35987E-04   -0.14920E-04  7428   0.164E-02    0.380E-02
RMM:   5    -0.116288304058E+04   -0.59186E-04   -0.87294E-05  7121   0.108E-02    0.242E-02
RMM:   6    -0.116288306927E+04   -0.28694E-04   -0.28569E-05  6841   0.729E-03    0.213E-02
RMM:   7    -0.116288311573E+04   -0.46456E-04   -0.31318E-05  6638   0.683E-03    0.205E-02
RMM:   8    -0.116288319019E+04   -0.74466E-04   -0.63268E-05  6686   0.819E-03
  17 F= -.11628832E+04 E0= -.11628832E+04  d E =-.141932E-02  mag=     5.9998
       N       E                     dE             d eps       ncg     rms          rms(c)
DAV:   1    -0.116288193473E+04    0.11810E-02   -0.69475E-01 12488   0.900E-01    0.345E-01
RMM:   2    -0.116288458524E+04   -0.26505E-02   -0.16276E-02 12707   0.158E-01    0.189E-01
RMM:   3    -0.116288485067E+04   -0.26543E-03   -0.92317E-04 10891   0.529E-02    0.918E-02
RMM:   4    -0.116288489603E+04   -0.45361E-04   -0.21406E-04  7664   0.193E-02    0.470E-02
RMM:   5    -0.116288497151E+04   -0.75478E-04   -0.10965E-04  7188   0.128E-02    0.296E-02
RMM:   6    -0.116288500833E+04   -0.36813E-04   -0.38249E-05  6957   0.852E-03    0.250E-02
RMM:   7    -0.116288505058E+04   -0.42253E-04   -0.29547E-05  6722   0.655E-03    0.231E-02
RMM:   8    -0.116288515049E+04   -0.99914E-04   -0.82070E-05  6853   0.100E-02
  18 F= -.11628852E+04 E0= -.11628851E+04  d E =-.196030E-02  mag=     5.9998
       N       E                     dE             d eps       ncg     rms          rms(c)
DAV:   1    -0.116288529775E+04   -0.24717E-03   -0.23863E-01 12616   0.548E-01    0.150E-01
RMM:   2    -0.116288600657E+04   -0.70882E-03   -0.58249E-03 12669   0.947E-02    0.903E-02
RMM:   3    -0.116288605280E+04   -0.46229E-04   -0.27569E-04  8141   0.312E-02    0.541E-02
RMM:   4    -0.116288609387E+04   -0.41065E-04   -0.10331E-04  7169   0.127E-02    0.314E-02
RMM:   5    -0.116288615267E+04   -0.58803E-04   -0.59106E-05  6982   0.875E-03    0.229E-02
RMM:   6    -0.116288618415E+04   -0.31484E-04   -0.24954E-05  6695   0.601E-03    0.215E-02
RMM:   7    -0.116288622121E+04   -0.37058E-04   -0.21386E-05  6015   0.559E-03    0.207E-02
RMM:   8    -0.116288630767E+04   -0.86461E-04   -0.73952E-05  6560   0.900E-03
  19 F= -.11628863E+04 E0= -.11628863E+04  d E =-.115718E-02  mag=     5.9998
       N       E                     dE             d eps       ncg     rms          rms(c)
DAV:   1    -0.116288166540E+04    0.45558E-02   -0.14818E+00 12592   0.131E+00    0.495E-01
RMM:   2    -0.116288720649E+04   -0.55411E-02   -0.34755E-02 12685   0.230E-01    0.272E-01
RMM:   3    -0.116288772179E+04   -0.51530E-03   -0.19968E-03 12534   0.791E-02    0.132E-01
RMM:   4    -0.116288776467E+04   -0.42881E-04   -0.44883E-04  9375   0.269E-02    0.644E-02
RMM:   5    -0.116288787160E+04   -0.10693E-03   -0.19653E-04  7539   0.179E-02    0.354E-02
RMM:   6    -0.116288792446E+04   -0.52859E-04   -0.60182E-05  7059   0.107E-02    0.290E-02
RMM:   7    -0.116288801296E+04   -0.88502E-04   -0.67450E-05  7011   0.994E-03    0.275E-02
RMM:   8    -0.116288812745E+04   -0.11449E-03   -0.98295E-05  6993   0.103E-02    0.245E-02
RMM:   9    -0.116288824059E+04   -0.11313E-03   -0.11373E-04  6915   0.960E-03    0.233E-02
RMM:  10    -0.116288838420E+04   -0.14361E-03   -0.18642E-04  7117   0.125E-02    0.218E-02
RMM:  11    -0.116288861692E+04   -0.23273E-03   -0.69928E-04  8153   0.257E-02    0.195E-02
RMM:  12    -0.116288875862E+04   -0.14169E-03   -0.38939E-04  7300   0.170E-02    0.176E-02
RMM:  13    -0.116288885515E+04   -0.96529E-04   -0.21838E-04  7037   0.127E-02
  20 F= -.11628889E+04 E0= -.11628888E+04  d E =-.254747E-02  mag=     5.9997
