       N       E                     dE             d eps       ncg     rms          rms(c)
DAV:   1    -0.116292447107E+04   -0.11629E+04   -0.51518E-06  3472   0.377E-03    0.604E-03
RMM:   2    -0.116292447604E+04   -0.49709E-05   -0.34061E-06  1753   0.254E-03    0.750E-03
RMM:   3    -0.116292447671E+04   -0.67512E-06   -0.42733E-07   732   0.142E-03    0.716E-03
RMM:   4    -0.116292447671E+04    0.45547E-08   -0.95759E-08   523   0.133E-03    0.732E-03
RMM:   5    -0.116292447176E+04    0.49456E-05   -0.13610E-06  1012   0.177E-03    0.647E-03
RMM:   6    -0.116292447107E+04    0.68967E-06   -0.13168E-07   477   0.128E-03    0.703E-03
RMM:   7    -0.116292446963E+04    0.14401E-05   -0.41638E-07   650   0.140E-03    0.813E-03
RMM:   8    -0.116292446921E+04    0.42001E-06   -0.10737E-07   404   0.125E-03
   1 F= -.11629245E+04 E0= -.11629245E+04  d E =-.116292E+04  mag=     4.0000
       N       E                     dE             d eps       ncg     rms          rms(c)
DAV:   1    -0.116292456413E+04   -0.94500E-04   -0.12820E-01  6192   0.416E-01    0.108E-01
RMM:   2    -0.116292475471E+04   -0.19058E-03   -0.40482E-03  6134   0.819E-02    0.117E-01
RMM:   3    -0.116292471879E+04    0.35915E-04   -0.14890E-04  3813   0.239E-02    0.820E-02
RMM:   4    -0.116292470029E+04    0.18508E-04   -0.11021E-04  3693   0.124E-02    0.494E-02
RMM:   5    -0.116292469005E+04    0.10238E-04   -0.45176E-05  3568   0.848E-03    0.165E-02
RMM:   6    -0.116292469420E+04   -0.41495E-05   -0.13021E-05  3134   0.522E-03    0.140E-02
RMM:   7    -0.116292469885E+04   -0.46552E-05   -0.65973E-06  2600   0.336E-03    0.120E-02
RMM:   8    -0.116292470746E+04   -0.86069E-05   -0.84985E-06  2640   0.350E-03
   2 F= -.11629247E+04 E0= -.11629247E+04  d E =-.238247E-03  mag=     4.0000
       N       E                     dE             d eps       ncg     rms          rms(c)
DAV:   1    -0.116292499301E+04   -0.29416E-03   -0.27153E-02  6176   0.188E-01    0.582E-02
RMM:   2    -0.116292500349E+04   -0.10480E-04   -0.97759E-04  5774   0.402E-02    0.655E-02
RMM:   3    -0.116292498997E+04    0.13520E-04   -0.40773E-05  3313   0.122E-02    0.455E-02
RMM:   4    -0.116292498335E+04    0.66245E-05   -0.44901E-05  3407   0.768E-03    0.273E-02
RMM:   5    -0.116292498367E+04   -0.32609E-06   -0.18101E-05  3146   0.528E-03    0.160E-02
RMM:   6    -0.116292498662E+04   -0.29468E-05   -0.52756E-06  2582   0.362E-03    0.117E-02
RMM:   7    -0.116292498956E+04   -0.29354E-05   -0.25604E-06  1726   0.243E-03    0.101E-02
RMM:   8    -0.116292499492E+04   -0.53679E-05   -0.43375E-06  1787   0.270E-03
   3 F= -.11629250E+04 E0= -.11629250E+04  d E =-.287465E-03  mag=     4.0000
