       N       E                     dE             d eps       ncg     rms          rms(c)
DAV:   1    -0.116340727588E+04   -0.11634E+04   -0.91255E-06  7768   0.893E-03    0.105E-02
RMM:   2    -0.116340727596E+04   -0.74026E-07   -0.56008E-06  5683   0.380E-03    0.133E-02
RMM:   3    -0.116340727605E+04   -0.96057E-07   -0.18957E-06  4039   0.244E-03    0.219E-03
RMM:   4    -0.116340727619E+04   -0.13411E-06   -0.10744E-06  2994   0.223E-03    0.339E-03
RMM:   5    -0.116340727626E+04   -0.70591E-07   -0.59080E-07  2396   0.208E-03    0.117E-03
RMM:   6    -0.116340727632E+04   -0.63621E-07   -0.25546E-07  1721   0.198E-03    0.102E-03
RMM:   7    -0.116340727640E+04   -0.78056E-07   -0.25288E-07  1720   0.195E-03    0.148E-03
RMM:   8    -0.116340727646E+04   -0.55908E-07   -0.14398E-07  1263   0.192E-03
   1 F= -.11634073E+04 E0= -.11634071E+04  d E =-.116341E+04  mag=    -2.0022
       N       E                     dE             d eps       ncg     rms          rms(c)
DAV:   1    -0.116340741655E+04   -0.14015E-03   -0.12970E-01 12544   0.420E-01    0.114E-01
RMM:   2    -0.116340762674E+04   -0.21019E-03   -0.41308E-03 12241   0.820E-02    0.113E-01
RMM:   3    -0.116340758237E+04    0.44370E-04   -0.16014E-04  7599   0.269E-02    0.767E-02
RMM:   4    -0.116340754305E+04    0.39320E-04   -0.14037E-04  7334   0.139E-02    0.404E-02
RMM:   5    -0.116340753511E+04    0.79363E-05   -0.30661E-05  6970   0.819E-03    0.140E-02
RMM:   6    -0.116340753540E+04   -0.28923E-06   -0.10109E-05  6302   0.457E-03    0.120E-02
RMM:   7    -0.116340753574E+04   -0.34028E-06   -0.42653E-06  5177   0.345E-03    0.789E-03
RMM:   8    -0.116340753605E+04   -0.31156E-06   -0.27935E-06  4849   0.261E-03
   2 F= -.11634075E+04 E0= -.11634073E+04  d E =-.259595E-03  mag=    -2.0022
       N       E                     dE             d eps       ncg     rms          rms(c)
DAV:   1    -0.116340782188E+04   -0.28614E-03   -0.26245E-02 12224   0.184E-01    0.568E-02
RMM:   2    -0.116340783377E+04   -0.11887E-04   -0.92366E-04 11527   0.385E-02    0.614E-02
RMM:   3    -0.116340781734E+04    0.16430E-04   -0.37474E-05  6605   0.120E-02    0.425E-02
RMM:   4    -0.116340780128E+04    0.16060E-04   -0.48274E-05  6706   0.783E-03    0.260E-02
RMM:   5    -0.116340779794E+04    0.33451E-05   -0.11292E-05  6213   0.521E-03    0.124E-02
RMM:   6    -0.116340779781E+04    0.12390E-06   -0.37986E-06  5028   0.297E-03    0.926E-03
RMM:   7    -0.116340779782E+04   -0.11001E-07   -0.13327E-06  3342   0.247E-03    0.593E-03
RMM:   8    -0.116340779782E+04    0.60245E-08   -0.30422E-07  2164   0.195E-03
   3 F= -.11634078E+04 E0= -.11634076E+04  d E =-.261765E-03  mag=    -2.0022
