       N       E                     dE             d eps       ncg     rms          rms(c)
DAV:   1    -0.117536383063E+04   -0.11754E+04   -0.29726E-06  3616   0.275E-03    0.334E-03
RMM:   2    -0.117536383054E+04    0.89145E-07   -0.22434E-07  1222   0.181E-03    0.186E-03
RMM:   3    -0.117536383049E+04    0.54031E-07   -0.26481E-08   854   0.167E-03    0.677E-04
RMM:   4    -0.117536383048E+04    0.47003E-08   -0.44672E-09   400   0.166E-03    0.376E-04
RMM:   5    -0.117536383048E+04    0.30559E-08   -0.11370E-09   335   0.166E-03    0.173E-04
RMM:   6    -0.117536383048E+04   -0.42201E-09   -0.22610E-09   293   0.166E-03    0.607E-05
RMM:   7    -0.117536383048E+04    0.40745E-09    0.00000E+00   266   0.166E-03    0.319E-05
RMM:   8    -0.117536383048E+04    0.43656E-10    0.00000E+00   254   0.166E-03
   1 F= -.11753638E+04 E0= -.11753546E+04  d E =-.117536E+04  mag=     1.9495
       N       E                     dE             d eps       ncg     rms          rms(c)
DAV:   1    -0.117536384400E+04   -0.13517E-04   -0.91960E-02  6144   0.345E-01    0.104E-01
RMM:   2    -0.117536386952E+04   -0.25517E-04   -0.32863E-03  6094   0.696E-02    0.981E-02
RMM:   3    -0.117536379933E+04    0.70182E-04   -0.11950E-04  3970   0.151E-02    0.649E-02
RMM:   4    -0.117536375148E+04    0.47853E-04   -0.15538E-04  3673   0.129E-02    0.296E-02
RMM:   5    -0.117536373942E+04    0.12055E-04   -0.28757E-05  3364   0.572E-03    0.160E-02
RMM:   6    -0.117536373946E+04   -0.33368E-07   -0.73131E-06  2598   0.304E-03    0.105E-02
RMM:   7    -0.117536373986E+04   -0.40096E-06   -0.28544E-06  2183   0.234E-03    0.563E-03
RMM:   8    -0.117536373985E+04    0.10361E-07   -0.54708E-07  1594   0.200E-03
   2 F= -.11753637E+04 E0= -.11753544E+04  d E =0.906315E-04  mag=     1.9496
       N       E                     dE             d eps       ncg     rms          rms(c)
DAV:   1    -0.117536421432E+04   -0.47446E-03   -0.26073E-02  6240   0.181E-01    0.599E-02
RMM:   2    -0.117536420478E+04    0.95403E-05   -0.10027E-03  5717   0.385E-02    0.645E-02
RMM:   3    -0.117536418202E+04    0.22763E-04   -0.36293E-05  3249   0.794E-03    0.440E-02
RMM:   4    -0.117536416466E+04    0.17361E-04   -0.56911E-05  3367   0.770E-03    0.199E-02
RMM:   5    -0.117536415912E+04    0.55359E-05   -0.10796E-05  2847   0.350E-03    0.104E-02
RMM:   6    -0.117536415895E+04    0.16805E-06   -0.15306E-06  1689   0.200E-03    0.684E-03
RMM:   7    -0.117536415901E+04   -0.59707E-07   -0.77986E-07  1381   0.192E-03    0.291E-03
RMM:   8    -0.117536415901E+04    0.62282E-08   -0.15242E-07   858   0.177E-03
   3 F= -.11753642E+04 E0= -.11753549E+04  d E =-.419156E-03  mag=     1.9495
