       N       E                     dE             d eps       ncg     rms          rms(c)
DAV:   1    -0.116213688883E+04   -0.11621E+04   -0.92758E-06  3888   0.103E-02    0.111E-02
RMM:   2    -0.116213688961E+04   -0.78278E-06   -0.71804E-06  2864   0.409E-03    0.156E-02
RMM:   3    -0.116213689002E+04   -0.40549E-06   -0.24887E-06  2276   0.278E-03    0.358E-03
RMM:   4    -0.116213689056E+04   -0.54429E-06   -0.13015E-06  1641   0.228E-03    0.367E-03
RMM:   5    -0.116213689092E+04   -0.36036E-06   -0.97066E-07  1523   0.228E-03    0.335E-03
RMM:   6    -0.116213689149E+04   -0.57084E-06   -0.68840E-07  1257   0.205E-03    0.287E-03
RMM:   7    -0.116213689208E+04   -0.58750E-06   -0.91501E-07  1376   0.213E-03    0.198E-03
RMM:   8    -0.116213689265E+04   -0.57166E-06   -0.15814E-06  1650   0.231E-03
   1 F= -.11621369E+04 E0= -.11621369E+04  d E =-.116214E+04  mag=     4.0000
       N       E                     dE             d eps       ncg     rms          rms(c)
DAV:   1    -0.116213695781E+04   -0.65730E-04   -0.58052E-02  6176   0.275E-01    0.823E-02
RMM:   2    -0.116213711407E+04   -0.15626E-03   -0.14928E-03  6045   0.488E-02    0.512E-02
RMM:   3    -0.116213711748E+04   -0.34122E-05   -0.62984E-05  3300   0.171E-02    0.300E-02
RMM:   4    -0.116213711166E+04    0.58218E-05   -0.30548E-05  3150   0.691E-03    0.149E-02
RMM:   5    -0.116213711182E+04   -0.15798E-06   -0.70218E-06  2828   0.422E-03    0.110E-02
RMM:   6    -0.116213711211E+04   -0.28756E-06   -0.28124E-06  2305   0.277E-03    0.457E-03
RMM:   7    -0.116213711226E+04   -0.15115E-06   -0.92868E-07  1423   0.232E-03    0.251E-03
RMM:   8    -0.116213711237E+04   -0.11123E-06   -0.31940E-07  1077   0.198E-03
   2 F= -.11621371E+04 E0= -.11621371E+04  d E =-.219716E-03  mag=     4.0000
