       N       E                     dE             d eps       ncg     rms          rms(c)
DAV:   1    -0.116186180803E+04   -0.11619E+04   -0.76169E-06  7440   0.751E-03    0.153E-02
RMM:   2    -0.116186180781E+04    0.22905E-06   -0.54056E-06  5401   0.345E-03    0.233E-02
RMM:   3    -0.116186180788E+04   -0.76179E-07   -0.16586E-06  3875   0.240E-03    0.203E-03
RMM:   4    -0.116186180791E+04   -0.27241E-07   -0.49175E-07  2293   0.202E-03    0.125E-03
RMM:   5    -0.116186180793E+04   -0.26499E-07   -0.31749E-07  1931   0.193E-03    0.213E-03
RMM:   6    -0.116186180793E+04    0.52532E-08   -0.44096E-08  1275   0.183E-03    0.118E-03
RMM:   7    -0.116186180793E+04    0.21973E-08   -0.19286E-08  1239   0.183E-03    0.349E-04
RMM:   8    -0.116186180793E+04    0.23283E-08   -0.29121E-09   984   0.182E-03
   1 F= -.11618618E+04 E0= -.11618603E+04  d E =-.116186E+04  mag=     7.9807
       N       E                     dE             d eps       ncg     rms          rms(c)
DAV:   1    -0.116186189903E+04   -0.91104E-04   -0.10489E-01 12320   0.372E-01    0.113E-01
RMM:   2    -0.116186202342E+04   -0.12439E-03   -0.35123E-03 12192   0.753E-02    0.106E-01
RMM:   3    -0.116186197857E+04    0.44856E-04   -0.12512E-04  7523   0.199E-02    0.683E-02
RMM:   4    -0.116186193181E+04    0.46761E-04   -0.11763E-04  7282   0.130E-02    0.418E-02
RMM:   5    -0.116186192329E+04    0.85141E-05   -0.38245E-05  6951   0.869E-03    0.436E-02
RMM:   6    -0.116186192326E+04    0.28929E-07   -0.15230E-05  6157   0.530E-03    0.135E-02
RMM:   7    -0.116186192361E+04   -0.34098E-06   -0.54288E-06  5125   0.370E-03    0.131E-02
RMM:   8    -0.116186192393E+04   -0.32401E-06   -0.33668E-06  4794   0.284E-03
   2 F= -.11618619E+04 E0= -.11618604E+04  d E =-.116004E-03  mag=     7.9798
       N       E                     dE             d eps       ncg     rms          rms(c)
DAV:   1    -0.116186225175E+04   -0.32815E-03   -0.24720E-02 12496   0.179E-01    0.581E-02
RMM:   2    -0.116186224845E+04    0.33039E-05   -0.91544E-04 11556   0.381E-02    0.581E-02
RMM:   3    -0.116186223140E+04    0.17050E-04   -0.34447E-05  6566   0.996E-03    0.381E-02
RMM:   4    -0.116186221453E+04    0.16871E-04   -0.42064E-05  6584   0.750E-03    0.237E-02
RMM:   5    -0.116186221125E+04    0.32759E-05   -0.10642E-05  5521   0.482E-03    0.189E-02
RMM:   6    -0.116186221116E+04    0.90717E-07   -0.37631E-06  4464   0.285E-03    0.858E-03
RMM:   7    -0.116186221121E+04   -0.44471E-07   -0.12818E-06  3419   0.239E-03    0.604E-03
RMM:   8    -0.116186221122E+04   -0.71159E-08   -0.36007E-07  2148   0.194E-03
   3 F= -.11618622E+04 E0= -.11618607E+04  d E =-.287286E-03  mag=     7.9802
       N       E                     dE             d eps       ncg     rms          rms(c)
DAV:   1    -0.116186227969E+04   -0.68478E-04   -0.23908E-02 12160   0.181E-01    0.384E-02
RMM:   2    -0.116186232856E+04   -0.48874E-04   -0.61365E-04 11234   0.310E-02    0.271E-02
RMM:   3    -0.116186232579E+04    0.27662E-05   -0.25021E-05  6302   0.962E-03    0.169E-02
RMM:   4    -0.116186232358E+04    0.22139E-05   -0.11096E-05  6014   0.415E-03    0.951E-03
RMM:   5    -0.116186232333E+04    0.24783E-06   -0.22183E-06  4370   0.272E-03    0.266E-03
RMM:   6    -0.116186232338E+04   -0.51950E-07   -0.54390E-07  2101   0.196E-03    0.135E-03
RMM:   7    -0.116186232341E+04   -0.23065E-07   -0.24723E-07  1901   0.200E-03    0.696E-04
RMM:   8    -0.116186232341E+04   -0.18626E-08   -0.25236E-08  1163   0.183E-03
   4 F= -.11618623E+04 E0= -.11618608E+04  d E =-.112195E-03  mag=     7.9803
