       N       E                     dE             d eps       ncg     rms          rms(c)
DAV:   1    -0.116249018158E+04   -0.11625E+04   -0.16617E-06  6584   0.178E-03    0.107E-03
RMM:   2    -0.116249018159E+04   -0.88476E-08   -0.17284E-08  1135   0.981E-04    0.714E-04
RMM:   3    -0.116249018160E+04   -0.54861E-08   -0.52658E-09   696   0.981E-04    0.532E-04
RMM:   4    -0.116249018161E+04   -0.11496E-07   -0.90034E-09   528   0.997E-04    0.424E-04
RMM:   5    -0.116249018162E+04   -0.99244E-08   -0.91900E-09   464   0.101E-03    0.430E-04
RMM:   6    -0.116249018165E+04   -0.32160E-07   -0.51499E-08   524   0.109E-03    0.259E-04
RMM:   7    -0.116249018167E+04   -0.21886E-07   -0.54770E-08   499   0.110E-03    0.308E-04
RMM:   8    -0.116249018169E+04   -0.16240E-07   -0.36381E-08   461   0.111E-03
   1 F= -.11624902E+04 E0= -.11624866E+04  d E =-.116249E+04  mag=     3.9082
       N       E                     dE             d eps       ncg     rms          rms(c)
DAV:   1    -0.116249105588E+04   -0.87421E-03   -0.23729E-01 12304   0.545E-01    0.127E-01
RMM:   2    -0.116249147765E+04   -0.42177E-03   -0.65305E-03 12145   0.979E-02    0.926E-02
RMM:   3    -0.116249140708E+04    0.70570E-04   -0.25696E-04  8841   0.288E-02    0.583E-02
RMM:   4    -0.116249136240E+04    0.44684E-04   -0.16791E-04  7520   0.155E-02    0.287E-02
RMM:   5    -0.116249135919E+04    0.32114E-05   -0.35882E-05  6980   0.938E-03    0.139E-02
RMM:   6    -0.116249136069E+04   -0.15044E-05   -0.13593E-05  6499   0.488E-03    0.111E-02
RMM:   7    -0.116249136158E+04   -0.89016E-06   -0.56357E-06  5425   0.394E-03    0.705E-03
RMM:   8    -0.116249136258E+04   -0.99538E-06   -0.44348E-06  5442   0.278E-03
   2 F= -.11624914E+04 E0= -.11624877E+04  d E =-.118089E-02  mag=     3.9059
