       N       E                     dE             d eps       ncg     rms          rms(c)
DAV:   1     0.120090586532E+05    0.12009E+05   -0.42364E+05 12344   0.132E+03
DAV:   2     0.681065449129E+03   -0.11328E+05   -0.10116E+05 12320   0.378E+02
DAV:   3    -0.135489318884E+04   -0.20360E+04   -0.19608E+04 13216   0.167E+02
DAV:   4    -0.149266182510E+04   -0.13777E+03   -0.13527E+03 16216   0.457E+01
DAV:   5    -0.150176515458E+04   -0.91033E+01   -0.90554E+01 22152   0.108E+01    0.182E+02
RMM:   6    -0.116363800131E+04    0.33813E+03   -0.16234E+03 12508   0.356E+01    0.120E+02
RMM:   7    -0.114746493843E+04    0.16173E+02   -0.60718E+01 12848   0.117E+01    0.744E+01
RMM:   8    -0.115760036880E+04   -0.10135E+02   -0.22890E+01 13943   0.537E+00    0.553E+01
RMM:   9    -0.119709398242E+04   -0.39494E+02   -0.17921E+02 15281   0.107E+01    0.965E+01
RMM:  10    -0.118039637339E+04    0.16698E+02   -0.19043E+01 12786   0.454E+00    0.495E+01
RMM:  11    -0.115117117601E+04    0.29225E+02   -0.22469E+01 12607   0.498E+00    0.266E+01
RMM:  12    -0.115123431397E+04   -0.63138E-01   -0.27228E+00 14571   0.141E+00    0.239E+01
RMM:  13    -0.115250076154E+04   -0.12664E+01   -0.12581E+00 13067   0.153E+00    0.179E+01
RMM:  14    -0.115318064368E+04   -0.67988E+00   -0.20418E+00 13766   0.199E+00    0.104E+01
RMM:  15    -0.115497157553E+04   -0.17909E+01   -0.17929E+00 14260   0.130E+00    0.176E+01
RMM:  16    -0.115511261156E+04   -0.14104E+00   -0.22165E-01 14266   0.631E-01    0.145E+01
RMM:  17    -0.115586886274E+04   -0.75625E+00   -0.18506E-01 13986   0.504E-01    0.140E+01
RMM:  18    -0.115632763315E+04   -0.45877E+00   -0.28075E-01 13198   0.640E-01    0.131E+01
RMM:  19    -0.115597497459E+04    0.35266E+00   -0.51383E-01 12916   0.887E-01    0.921E+00
RMM:  20    -0.115627085753E+04   -0.29588E+00   -0.22902E-01 14084   0.578E-01    0.731E+00
RMM:  21    -0.115631873837E+04   -0.47881E-01   -0.32498E-02 15998   0.195E-01    0.724E+00
RMM:  22    -0.115638395414E+04   -0.65216E-01   -0.12934E-02 13034   0.137E-01    0.705E+00
RMM:  23    -0.115666158057E+04   -0.27763E+00   -0.20556E-01 12466   0.552E-01    0.609E+00
RMM:  24    -0.115689135131E+04   -0.22977E+00   -0.35796E-01 12976   0.766E-01    0.494E+00
RMM:  25    -0.115697674964E+04   -0.85398E-01   -0.38537E-01 13434   0.784E-01    0.398E+00
RMM:  26    -0.115696847485E+04    0.82748E-02   -0.14311E-01 15634   0.403E-01    0.367E+00
RMM:  27    -0.115695028301E+04    0.18192E-01   -0.51075E-02 14125   0.275E-01    0.306E+00
RMM:  28    -0.115692895637E+04    0.21327E-01   -0.10480E-01 13100   0.415E-01    0.208E+00
RMM:  29    -0.115692510848E+04    0.38479E-02   -0.88036E-02 13488   0.354E-01    0.140E+00
RMM:  30    -0.115692761896E+04   -0.25105E-02   -0.47392E-02 14237   0.240E-01    0.103E+00
RMM:  31    -0.115693485562E+04   -0.72367E-02   -0.19478E-02 13527   0.165E-01    0.709E-01
RMM:  32    -0.115694308438E+04   -0.82288E-02   -0.13056E-02 13046   0.135E-01    0.489E-01
RMM:  33    -0.115695143593E+04   -0.83516E-02   -0.10410E-02 12745   0.122E-01    0.406E-01
RMM:  34    -0.115695591217E+04   -0.44762E-02   -0.50271E-03 12391   0.779E-02    0.367E-01
RMM:  35    -0.115695478332E+04    0.11288E-02   -0.43070E-04  9796   0.223E-02    0.379E-01
RMM:  36    -0.115696025463E+04   -0.54713E-02   -0.24557E-03 10584   0.643E-02    0.361E-01
RMM:  37    -0.115697087667E+04   -0.10622E-01   -0.98184E-03 11271   0.123E-01    0.324E-01
RMM:  38    -0.115698486519E+04   -0.13989E-01   -0.18710E-02 11518   0.163E-01    0.322E-01
RMM:  39    -0.115698937395E+04   -0.45088E-02   -0.65287E-03 12534   0.776E-02    0.346E-01
RMM:  40    -0.115698257733E+04    0.67966E-02   -0.18428E-03 10215   0.615E-02
   1 F= -.11569826E+04 E0= -.11569826E+04  d E =-.115698E+04  mag=     2.0210
       N       E                     dE             d eps       ncg     rms          rms(c)
DAV:   1    -0.113947093992E+04    0.17518E+02   -0.15632E+03 12288   0.420E+01    0.291E+01
RMM:   2    -0.116372932369E+04   -0.24258E+02   -0.26107E+02 13890   0.133E+01    0.184E+01
RMM:   3    -0.115554969381E+04    0.81796E+01   -0.11002E+01 12727   0.536E+00    0.131E+01
RMM:   4    -0.115461125808E+04    0.93844E+00   -0.11939E+01 15763   0.174E+00    0.106E+01
RMM:   5    -0.115415910572E+04    0.45215E+00   -0.11195E+00 13446   0.851E-01    0.592E+00
RMM:   6    -0.115388650510E+04    0.27260E+00   -0.87052E-01 14874   0.614E-01    0.215E+00
RMM:   7    -0.115390778465E+04   -0.21280E-01   -0.45952E-01 14857   0.452E-01    0.167E+00
RMM:   8    -0.115387771759E+04    0.30067E-01   -0.75879E-02 14446   0.215E-01    0.668E-01
RMM:   9    -0.115388985244E+04   -0.12135E-01   -0.15585E-02 13921   0.143E-01    0.455E-01
RMM:  10    -0.115390201269E+04   -0.12160E-01   -0.11975E-02 13425   0.116E-01    0.340E-01
RMM:  11    -0.115391014743E+04   -0.81347E-02   -0.68122E-03 12891   0.850E-02    0.311E-01
RMM:  12    -0.115392007828E+04   -0.99308E-02   -0.61705E-03 11654   0.899E-02    0.294E-01
RMM:  13    -0.115394223291E+04   -0.22155E-01   -0.27355E-02 11644   0.205E-01    0.270E-01
RMM:  14    -0.115395448245E+04   -0.12250E-01   -0.17888E-02 12052   0.154E-01    0.241E-01
RMM:  15    -0.115397049735E+04   -0.16015E-01   -0.28396E-02 11719   0.206E-01    0.204E-01
RMM:  16    -0.115397872050E+04   -0.82232E-02   -0.15559E-02 12390   0.138E-01    0.183E-01
RMM:  17    -0.115399070712E+04   -0.11987E-01   -0.43605E-02 11767   0.267E-01    0.184E-01
RMM:  18    -0.115398958438E+04    0.11227E-02   -0.51821E-03 11020   0.961E-02    0.190E-01
RMM:  19    -0.115399904490E+04   -0.94605E-02   -0.24223E-02 11528   0.201E-01    0.895E-02
RMM:  20    -0.115400164316E+04   -0.25983E-02   -0.99139E-03 12276   0.104E-01    0.791E-02
RMM:  21    -0.115400357734E+04   -0.19342E-02   -0.68616E-03 11355   0.101E-01    0.704E-02
RMM:  22    -0.115400473929E+04   -0.11619E-02   -0.36595E-03 11546   0.688E-02    0.619E-02
RMM:  23    -0.115400552758E+04   -0.78829E-03   -0.17086E-03 10894   0.485E-02    0.608E-02
RMM:  24    -0.115400612812E+04   -0.60055E-03   -0.82051E-04  9751   0.353E-02    0.615E-02
RMM:  25    -0.115400685946E+04   -0.73134E-03   -0.99880E-04 10021   0.411E-02    0.571E-02
RMM:  26    -0.115400790864E+04   -0.10492E-02   -0.17774E-03 10269   0.570E-02    0.547E-02
RMM:  27    -0.115400939267E+04   -0.14840E-02   -0.40288E-03 10770   0.884E-02    0.526E-02
RMM:  28    -0.115401113077E+04   -0.17381E-02   -0.65482E-03 11108   0.111E-01    0.551E-02
RMM:  29    -0.115401149022E+04   -0.35946E-03   -0.11565E-03 10016   0.326E-02    0.546E-02
RMM:  30    -0.115401101834E+04    0.47188E-03   -0.26954E-04  7949   0.284E-02    0.569E-02
RMM:  31    -0.115401129226E+04   -0.27391E-03   -0.90696E-05  7236   0.155E-02    0.610E-02
RMM:  32    -0.115400978599E+04    0.15063E-02   -0.21944E-03 10321   0.734E-02    0.873E-02
RMM:  33    -0.115400603082E+04    0.37552E-02   -0.12299E-02 11451   0.161E-01    0.145E-01
RMM:  34    -0.115400898436E+04   -0.29535E-02   -0.34443E-03 10478   0.951E-02    0.110E-01
RMM:  35    -0.115400996860E+04   -0.98424E-03   -0.17388E-03  9895   0.578E-02    0.101E-01
RMM:  36    -0.115401127121E+04   -0.13026E-02   -0.32069E-03 10624   0.799E-02    0.880E-02
RMM:  37    -0.115401277740E+04   -0.15062E-02   -0.58201E-03 10991   0.105E-01    0.823E-02
RMM:  38    -0.115401331345E+04   -0.53606E-03   -0.13186E-03 10201   0.385E-02    0.870E-02
RMM:  39    -0.115401327857E+04    0.34889E-04   -0.78957E-05  7264   0.136E-02
   2 F= -.11540133E+04 E0= -.11540133E+04  d E =0.296930E+01  mag=     1.9999
       N       E                     dE             d eps       ncg     rms          rms(c)
DAV:   1    -0.115703192150E+04   -0.30186E+01   -0.38856E+02 12288   0.175E+01    0.152E+01
RMM:   2    -0.115777892213E+04   -0.74700E+00   -0.15379E+01 12292   0.444E+00    0.131E+01
RMM:   3    -0.115768591519E+04    0.93007E-01   -0.11537E+00 14064   0.147E+00    0.749E+00
RMM:   4    -0.115773321646E+04   -0.47301E-01   -0.11200E+00 13317   0.954E-01    0.416E+00
RMM:   5    -0.115753746984E+04    0.19575E+00   -0.28929E-01 14685   0.521E-01    0.118E+00
RMM:   6    -0.115753071314E+04    0.67567E-02   -0.30858E-02 15069   0.170E-01    0.799E-01
RMM:   7    -0.115753044394E+04    0.26920E-03   -0.92072E-03 15242   0.932E-02    0.302E-01
RMM:   8    -0.115753015133E+04    0.29262E-03   -0.31348E-03 14573   0.522E-02    0.109E-01
RMM:   9    -0.115753017250E+04   -0.21175E-04   -0.65399E-04 11716   0.269E-02
   3 F= -.11575302E+04 E0= -.11575302E+04  d E =-.351689E+01  mag=     2.0000
       N       E                     dE             d eps       ncg     rms          rms(c)
DAV:   1    -0.115806402836E+04   -0.53388E+00   -0.17742E+02 12752   0.138E+01    0.517E+00
RMM:   2    -0.115852843844E+04   -0.46441E+00   -0.61660E+00 12314   0.272E+00    0.596E+00
RMM:   3    -0.115845964538E+04    0.68793E-01   -0.26847E-01 13973   0.837E-01    0.443E+00
RMM:   4    -0.115843855200E+04    0.21093E-01   -0.14086E-01 13718   0.388E-01    0.194E+00
RMM:   5    -0.115841963976E+04    0.18912E-01   -0.34779E-02 12900   0.224E-01    0.400E-01
RMM:   6    -0.115841911030E+04    0.52946E-03   -0.61755E-03 14130   0.809E-02    0.245E-01
RMM:   7    -0.115841888479E+04    0.22551E-03   -0.17148E-03 13359   0.352E-02    0.120E-01
RMM:   8    -0.115841903035E+04   -0.14556E-03   -0.55803E-04 10522   0.298E-02    0.569E-02
RMM:   9    -0.115841916787E+04   -0.13751E-03   -0.25906E-04  8870   0.195E-02    0.392E-02
RMM:  10    -0.115841928849E+04   -0.12062E-03   -0.14724E-04  8440   0.151E-02    0.361E-02
RMM:  11    -0.115841939715E+04   -0.10866E-03   -0.10228E-04  8040   0.126E-02    0.343E-02
RMM:  12    -0.115841956604E+04   -0.16889E-03   -0.12460E-04  7808   0.144E-02    0.330E-02
RMM:  13    -0.115841972156E+04   -0.15552E-03   -0.12892E-04  7589   0.127E-02    0.324E-02
RMM:  14    -0.115841993130E+04   -0.20973E-03   -0.17934E-04  7629   0.161E-02    0.306E-02
RMM:  15    -0.115842050455E+04   -0.57325E-03   -0.13618E-03 10120   0.491E-02    0.316E-02
RMM:  16    -0.115842083599E+04   -0.33144E-03   -0.78557E-04  9150   0.351E-02    0.279E-02
RMM:  17    -0.115842119382E+04   -0.35783E-03   -0.10056E-03  9624   0.364E-02    0.263E-02
RMM:  18    -0.115842157518E+04   -0.38135E-03   -0.11721E-03  9720   0.435E-02    0.255E-02
RMM:  19    -0.115842194567E+04   -0.37049E-03   -0.13169E-03  9991   0.456E-02    0.253E-02
RMM:  20    -0.115842219628E+04   -0.25061E-03   -0.76548E-04  9200   0.322E-02    0.235E-02
RMM:  21    -0.115842260817E+04   -0.41189E-03   -0.21080E-03 10347   0.586E-02    0.219E-02
RMM:  22    -0.115842300599E+04   -0.39783E-03   -0.31367E-03 10682   0.743E-02    0.213E-02
RMM:  23    -0.115842328376E+04   -0.27777E-03   -0.12929E-03 10126   0.407E-02    0.179E-02
RMM:  24    -0.115842346519E+04   -0.18143E-03   -0.13169E-03 10093   0.452E-02    0.190E-02
RMM:  25    -0.115842363477E+04   -0.16958E-03   -0.10823E-03  9718   0.408E-02    0.159E-02
RMM:  26    -0.115842375306E+04   -0.11829E-03   -0.83836E-04  9450   0.351E-02    0.154E-02
RMM:  27    -0.115842382957E+04   -0.76513E-04   -0.31212E-04  8076   0.206E-02
   4 F= -.11584238E+04 E0= -.11584238E+04  d E =-.893657E+00  mag=     2.0000
       N       E                     dE             d eps       ncg     rms          rms(c)
DAV:   1    -0.115878321618E+04   -0.35946E+00   -0.47457E+01 12688   0.648E+00    0.281E+00
RMM:   2    -0.115887477848E+04   -0.91562E-01   -0.13824E+00 12308   0.131E+00    0.210E+00
RMM:   3    -0.115886420923E+04    0.10569E-01   -0.11289E-01 13291   0.505E-01    0.117E+00
RMM:   4    -0.115885551551E+04    0.86937E-02   -0.42411E-02 13692   0.210E-01    0.526E-01
RMM:   5    -0.115885337390E+04    0.21416E-02   -0.76073E-03 13387   0.112E-01    0.250E-01
RMM:   6    -0.115885342823E+04   -0.54330E-04   -0.16502E-03 14324   0.355E-02    0.164E-01
RMM:   7    -0.115885348577E+04   -0.57547E-04   -0.57604E-04 11405   0.259E-02    0.651E-02
RMM:   8    -0.115885350945E+04   -0.23677E-04   -0.18948E-04  9086   0.176E-02
   5 F= -.11588535E+04 E0= -.11588535E+04  d E =-.429680E+00  mag=     2.0000
       N       E                     dE             d eps       ncg     rms          rms(c)
DAV:   1    -0.115894035522E+04   -0.86869E-01   -0.34139E+01 12896   0.615E+00    0.234E+00
RMM:   2    -0.115902111092E+04   -0.80756E-01   -0.10793E+00 12326   0.125E+00    0.223E+00
RMM:   3    -0.115901465459E+04    0.64563E-02   -0.72269E-02 13423   0.476E-01    0.154E+00
RMM:   4    -0.115901056673E+04    0.40879E-02   -0.32386E-02 13672   0.200E-01    0.698E-01
RMM:   5    -0.115900836109E+04    0.22056E-02   -0.65215E-03 14081   0.915E-02    0.219E-01
RMM:   6    -0.115900834623E+04    0.14863E-04   -0.98359E-04 12992   0.308E-02    0.124E-01
RMM:   7    -0.115900838420E+04   -0.37975E-04   -0.34308E-04 10119   0.209E-02    0.672E-02
RMM:   8    -0.115900843842E+04   -0.54221E-04   -0.18461E-04  8998   0.178E-02
   6 F= -.11590084E+04 E0= -.11590084E+04  d E =-.154929E+00  mag=     2.0000
       N       E                     dE             d eps       ncg     rms          rms(c)
DAV:   1    -0.115901057477E+04   -0.21906E-02   -0.18168E+01 12736   0.481E+00    0.140E+00
RMM:   2    -0.115905396275E+04   -0.43388E-01   -0.50644E-01 12345   0.902E-01    0.137E+00
RMM:   3    -0.115905303219E+04    0.93057E-03   -0.29948E-02 12755   0.363E-01    0.975E-01
RMM:   4    -0.115905202605E+04    0.10061E-02   -0.11814E-02 14811   0.123E-01    0.544E-01
RMM:   5    -0.115905116613E+04    0.85992E-03   -0.33630E-03 14720   0.615E-02    0.140E-01
RMM:   6    -0.115905117191E+04   -0.57835E-05   -0.45698E-04 10995   0.246E-02    0.778E-02
RMM:   7    -0.115905121324E+04   -0.41326E-04   -0.17976E-04  8902   0.163E-02    0.460E-02
RMM:   8    -0.115905128075E+04   -0.67505E-04   -0.13908E-04  8076   0.164E-02
   7 F= -.11590513E+04 E0= -.11590513E+04  d E =-.428423E-01  mag=     2.0000
       N       E                     dE             d eps       ncg     rms          rms(c)
DAV:   1    -0.115906325647E+04   -0.12043E-01   -0.12632E+01 12728   0.404E+00    0.937E-01
RMM:   2    -0.115909185884E+04   -0.28602E-01   -0.32676E-01 12420   0.723E-01    0.932E-01
RMM:   3    -0.115909176672E+04    0.92122E-04   -0.18373E-02 12356   0.304E-01    0.657E-01
RMM:   4    -0.115909128510E+04    0.48161E-03   -0.71421E-03 15632   0.944E-02    0.417E-01
RMM:   5    -0.115909077636E+04    0.50875E-03   -0.21031E-03 13762   0.477E-02    0.932E-02
RMM:   6    -0.115909080631E+04   -0.29954E-04   -0.30580E-04  9976   0.238E-02    0.539E-02
RMM:   7    -0.115909084507E+04   -0.38765E-04   -0.15719E-04  8176   0.145E-02    0.314E-02
RMM:   8    -0.115909089547E+04   -0.50398E-04   -0.10681E-04  7612   0.146E-02
   8 F= -.11590909E+04 E0= -.11590909E+04  d E =-.396147E-01  mag=     2.0000
       N       E                     dE             d eps       ncg     rms          rms(c)
DAV:   1    -0.115909176344E+04   -0.91837E-03   -0.13901E+01 12696   0.425E+00    0.817E-01
RMM:   2    -0.115912184872E+04   -0.30085E-01   -0.32709E-01 12451   0.723E-01    0.568E-01
RMM:   3    -0.115912246557E+04   -0.61684E-03   -0.20266E-02 12423   0.331E-01    0.370E-01
RMM:   4    -0.115912198088E+04    0.48469E-03   -0.61615E-03 16592   0.926E-02    0.231E-01
RMM:   5    -0.115912191183E+04    0.69053E-04   -0.14978E-03 14121   0.373E-02    0.693E-02
RMM:   6    -0.115912197176E+04   -0.59930E-04   -0.29868E-04  9940   0.239E-02    0.406E-02
RMM:   7    -0.115912203188E+04   -0.60126E-04   -0.18904E-04  8300   0.148E-02    0.305E-02
RMM:   8    -0.115912208915E+04   -0.57273E-04   -0.12159E-04  7724   0.145E-02
   9 F= -.11591221E+04 E0= -.11591221E+04  d E =-.311937E-01  mag=     2.0000
       N       E                     dE             d eps       ncg     rms          rms(c)
DAV:   1    -0.115911346829E+04    0.85636E-02   -0.16520E+01 12608   0.464E+00    0.839E-01
RMM:   2    -0.115914941812E+04   -0.35950E-01   -0.38394E-01 12496   0.779E-01    0.530E-01
RMM:   3    -0.115915014444E+04   -0.72632E-03   -0.23581E-02 12502   0.358E-01    0.344E-01
RMM:   4    -0.115914966304E+04    0.48139E-03   -0.65848E-03 16889   0.977E-02    0.210E-01
RMM:   5    -0.115914963601E+04    0.27039E-04   -0.15897E-03 14829   0.378E-02    0.659E-02
RMM:   6    -0.115914970452E+04   -0.68519E-04   -0.34461E-04 10548   0.246E-02    0.383E-02
RMM:   7    -0.115914976728E+04   -0.62751E-04   -0.22290E-04  8676   0.154E-02    0.288E-02
RMM:   8    -0.115914983602E+04   -0.68744E-04   -0.15177E-04  8013   0.155E-02
  10 F= -.11591498E+04 E0= -.11591498E+04  d E =-.277469E-01  mag=     2.0000
       N       E                     dE             d eps       ncg     rms          rms(c)
DAV:   1    -0.115914427550E+04    0.54918E-02   -0.11002E+01 12640   0.380E+00    0.672E-01
RMM:   2    -0.115916818951E+04   -0.23914E-01   -0.25567E-01 12504   0.634E-01    0.423E-01
RMM:   3    -0.115916861536E+04   -0.42585E-03   -0.15546E-02 12487   0.291E-01    0.275E-01
RMM:   4    -0.115916832594E+04    0.28942E-03   -0.43567E-03 16715   0.800E-02    0.170E-01
RMM:   5    -0.115916833521E+04   -0.92673E-05   -0.10878E-03 13734   0.316E-02    0.537E-02
RMM:   6    -0.115916839230E+04   -0.57088E-04   -0.24075E-04  9335   0.220E-02    0.329E-02
RMM:   7    -0.115916844378E+04   -0.51481E-04   -0.16136E-04  8015   0.144E-02    0.267E-02
RMM:   8    -0.115916850703E+04   -0.63248E-04   -0.11632E-04  7589   0.146E-02
  11 F= -.11591685E+04 E0= -.11591685E+04  d E =-.186710E-01  mag=     2.0000
       N       E                     dE             d eps       ncg     rms          rms(c)
DAV:   1    -0.115916254341E+04    0.59004E-02   -0.95255E+00 12712   0.355E+00    0.617E-01
RMM:   2    -0.115918323734E+04   -0.20694E-01   -0.22170E-01 12514   0.592E-01    0.373E-01
RMM:   3    -0.115918356917E+04   -0.33183E-03   -0.13405E-02 12510   0.271E-01    0.246E-01
RMM:   4    -0.115918334449E+04    0.22468E-03   -0.36994E-03 16627   0.741E-02    0.150E-01
RMM:   5    -0.115918336589E+04   -0.21403E-04   -0.93911E-04 13495   0.297E-02    0.484E-02
RMM:   6    -0.115918341835E+04   -0.52463E-04   -0.20510E-04  8888   0.211E-02    0.308E-02
RMM:   7    -0.115918346797E+04   -0.49616E-04   -0.13820E-04  7757   0.140E-02    0.257E-02
RMM:   8    -0.115918352517E+04   -0.57196E-04   -0.97954E-05  7390   0.139E-02
  12 F= -.11591835E+04 E0= -.11591835E+04  d E =-.150181E-01  mag=     2.0000
       N       E                     dE             d eps       ncg     rms          rms(c)
DAV:   1    -0.115917871256E+04    0.47554E-02   -0.72386E+00 12736   0.311E+00    0.536E-01
RMM:   2    -0.115919452914E+04   -0.15817E-01   -0.16988E-01 12515   0.518E-01    0.323E-01
RMM:   3    -0.115919476363E+04   -0.23450E-03   -0.10098E-02 12480   0.235E-01    0.213E-01
RMM:   4    -0.115919460346E+04    0.16017E-03   -0.28196E-03 16269   0.648E-02    0.128E-01
RMM:   5    -0.115919464359E+04   -0.40134E-04   -0.73018E-04 12530   0.272E-02    0.429E-02
RMM:   6    -0.115919469147E+04   -0.47871E-04   -0.16239E-04  8111   0.198E-02    0.290E-02
RMM:   7    -0.115919474041E+04   -0.48947E-04   -0.10904E-04  7477   0.136E-02    0.248E-02
RMM:   8    -0.115919479548E+04   -0.55066E-04   -0.83570E-05  7288   0.133E-02
  13 F= -.11591948E+04 E0= -.11591948E+04  d E =-.112703E-01  mag=     2.0000
       N       E                     dE             d eps       ncg     rms          rms(c)
DAV:   1    -0.115919218470E+04    0.25557E-02   -0.46852E+00 12816   0.250E+00    0.433E-01
RMM:   2    -0.115920244596E+04   -0.10261E-01   -0.10995E-01 12612   0.418E-01    0.263E-01
RMM:   3    -0.115920259962E+04   -0.15367E-03   -0.65234E-03 12624   0.188E-01    0.172E-01
RMM:   4    -0.115920250518E+04    0.94445E-04   -0.17826E-03 15323   0.524E-02    0.103E-01
RMM:   5    -0.115920255145E+04   -0.46270E-04   -0.46563E-04 10480   0.246E-02    0.365E-02
RMM:   6    -0.115920259585E+04   -0.44406E-04   -0.12012E-04  7471   0.181E-02    0.264E-02
RMM:   7    -0.115920263867E+04   -0.42818E-04   -0.79959E-05  7268   0.130E-02    0.235E-02
RMM:   8    -0.115920269473E+04   -0.56056E-04   -0.70493E-05  7134   0.128E-02
  14 F= -.11592027E+04 E0= -.11592027E+04  d E =-.789925E-02  mag=     2.0000
       N       E                     dE             d eps       ncg     rms          rms(c)
DAV:   1    -0.115920078641E+04    0.18523E-02   -0.34923E+00 12760   0.216E+00    0.370E-01
RMM:   2    -0.115920843061E+04   -0.76442E-02   -0.81897E-02 12609   0.362E-01    0.222E-01
RMM:   3    -0.115920855666E+04   -0.12605E-03   -0.49398E-03 12599   0.165E-01    0.146E-01
RMM:   4    -0.115920849172E+04    0.64937E-04   -0.12860E-03 14343   0.453E-02    0.892E-02
RMM:   5    -0.115920853319E+04   -0.41470E-04   -0.34507E-04  9295   0.234E-02    0.333E-02
RMM:   6    -0.115920857512E+04   -0.41931E-04   -0.10127E-04  7343   0.170E-02    0.251E-02
RMM:   7    -0.115920861539E+04   -0.40271E-04   -0.69933E-05  7197   0.126E-02    0.227E-02
RMM:   8    -0.115920867010E+04   -0.54704E-04   -0.63252E-05  7057   0.127E-02
  15 F= -.11592087E+04 E0= -.11592087E+04  d E =-.597537E-02  mag=     2.0000
       N       E                     dE             d eps       ncg     rms          rms(c)
DAV:   1    -0.115920671825E+04    0.18971E-02   -0.31450E+00 12808   0.205E+00    0.351E-01
RMM:   2    -0.115921358096E+04   -0.68627E-02   -0.73583E-02 12557   0.343E-01    0.210E-01
RMM:   3    -0.115921370144E+04   -0.12048E-03   -0.44890E-03 12473   0.158E-01    0.139E-01
RMM:   4    -0.115921365316E+04    0.48278E-04   -0.11869E-03 14039   0.432E-02    0.855E-02
RMM:   5    -0.115921369249E+04   -0.39328E-04   -0.31156E-04  8937   0.227E-02    0.321E-02
RMM:   6    -0.115921373306E+04   -0.40572E-04   -0.94322E-05  7293   0.163E-02    0.245E-02
RMM:   7    -0.115921376969E+04   -0.36628E-04   -0.63382E-05  7173   0.124E-02    0.223E-02
RMM:   8    -0.115921382480E+04   -0.55112E-04   -0.62348E-05  7029   0.126E-02
  16 F= -.11592138E+04 E0= -.11592138E+04  d E =-.515470E-02  mag=     2.0000
       N       E                     dE             d eps       ncg     rms          rms(c)
DAV:   1    -0.115921269783E+04    0.10719E-02   -0.21363E+00 12808   0.169E+00    0.288E-01
RMM:   2    -0.115921737012E+04   -0.46723E-02   -0.50174E-02 12615   0.283E-01    0.172E-01
RMM:   3    -0.115921744403E+04   -0.73904E-04   -0.30404E-03 12504   0.129E-01    0.114E-01
RMM:   4    -0.115921741869E+04    0.25335E-04   -0.79553E-04 12796   0.357E-02    0.709E-02
RMM:   5    -0.115921745235E+04   -0.33664E-04   -0.20174E-04  7827   0.211E-02    0.283E-02
RMM:   6    -0.115921748947E+04   -0.37110E-04   -0.77420E-05  7220   0.148E-02    0.234E-02
RMM:   7    -0.115921751726E+04   -0.27791E-04   -0.48801E-05  7077   0.115E-02    0.214E-02
RMM:   8    -0.115921756470E+04   -0.47446E-04   -0.49709E-05  6959   0.111E-02
  17 F= -.11592176E+04 E0= -.11592176E+04  d E =-.373990E-02  mag=     2.0000
       N       E                     dE             d eps       ncg     rms          rms(c)
DAV:   1    -0.115921598599E+04    0.15313E-02   -0.21087E+00 12760   0.168E+00    0.287E-01
RMM:   2    -0.115922061616E+04   -0.46302E-02   -0.49396E-02 12572   0.282E-01    0.171E-01
RMM:   3    -0.115922071438E+04   -0.98226E-04   -0.30615E-03 12398   0.130E-01    0.114E-01
RMM:   4    -0.115922069713E+04    0.17254E-04   -0.78924E-04 12708   0.356E-02    0.732E-02
RMM:   5    -0.115922072645E+04   -0.29319E-04   -0.19816E-04  7770   0.205E-02    0.291E-02
RMM:   6    -0.115922076354E+04   -0.37091E-04   -0.76763E-05  7218   0.149E-02    0.230E-02
RMM:   7    -0.115922079004E+04   -0.26503E-04   -0.47599E-05  7079   0.113E-02    0.209E-02
RMM:   8    -0.115922083968E+04   -0.49639E-04   -0.51753E-05  6958   0.114E-02
  18 F= -.11592208E+04 E0= -.11592208E+04  d E =-.327498E-02  mag=     2.0000
       N       E                     dE             d eps       ncg     rms          rms(c)
DAV:   1    -0.115921984060E+04    0.94944E-03   -0.14671E+00 12904   0.141E+00    0.243E-01
RMM:   2    -0.115922308991E+04   -0.32493E-02   -0.34494E-02 12690   0.235E-01    0.142E-01
RMM:   3    -0.115922315250E+04   -0.62582E-04   -0.20922E-03 12404   0.106E-01    0.939E-02
RMM:   4    -0.115922314094E+04    0.11558E-04   -0.51170E-04 10701   0.296E-02    0.598E-02
RMM:   5    -0.115922317140E+04   -0.30461E-04   -0.13660E-04  7360   0.191E-02    0.253E-02
RMM:   6    -0.115922320407E+04   -0.32668E-04   -0.63955E-05  7153   0.140E-02    0.212E-02
RMM:   7    -0.115922322862E+04   -0.24558E-04   -0.40882E-05  7017   0.101E-02    0.197E-02
RMM:   8    -0.115922327206E+04   -0.43435E-04   -0.42906E-05  6878   0.104E-02
  19 F= -.11592233E+04 E0= -.11592233E+04  d E =-.243238E-02  mag=     2.0000
