       N       E                     dE             d eps       ncg     rms          rms(c)
DAV:   1    -0.116024790737E+04   -0.11602E+04   -0.31597E-03 16192   0.148E-01    0.485E-01
RMM:   2    -0.116024796385E+04   -0.56478E-04   -0.17037E-02 11937   0.123E-01    0.117E+00
RMM:   3    -0.116024860233E+04   -0.63848E-03   -0.80007E-04  9726   0.342E-02    0.590E-01
RMM:   4    -0.116025210952E+04   -0.35072E-02   -0.90585E-04 10543   0.366E-02    0.508E-01
RMM:   5    -0.116024945107E+04    0.26585E-02   -0.65634E-03 12026   0.964E-02    0.109E+00
RMM:   6    -0.116024714925E+04    0.23018E-02   -0.33440E-03 10959   0.547E-02    0.340E-01
RMM:   7    -0.116024682719E+04    0.32206E-03   -0.16168E-04  7893   0.170E-02    0.842E-02
RMM:   8    -0.116024693855E+04   -0.11136E-03   -0.34887E-05  6715   0.781E-03    0.109E-01
RMM:   9    -0.116024679710E+04    0.14145E-03   -0.23397E-05  6091   0.707E-03    0.967E-02
RMM:  10    -0.116024663619E+04    0.16092E-03   -0.31541E-05  6232   0.702E-03    0.429E-02
RMM:  11    -0.116024658395E+04    0.52232E-04   -0.49979E-05  6629   0.718E-03
   1 F= -.11602466E+04 E0= -.11602375E+04  d E =-.116025E+04  mag=     8.0054
       N       E                     dE             d eps       ncg     rms          rms(c)
DAV:   1    -0.116024732564E+04   -0.68945E-03   -0.22155E+00 12744   0.173E+00    0.479E-01
RMM:   2    -0.116025172907E+04   -0.44034E-02   -0.70109E-02 12293   0.344E-01    0.551E-01
RMM:   3    -0.116025136198E+04    0.36709E-03   -0.34197E-03 12601   0.104E-01    0.408E-01
RMM:   4    -0.116025148130E+04   -0.11932E-03   -0.17246E-03 11669   0.483E-02    0.341E-01
RMM:   5    -0.116025247198E+04   -0.99068E-03   -0.11365E-03 10578   0.388E-02    0.333E-01
RMM:   6    -0.116025272194E+04   -0.24995E-03   -0.13048E-04  8049   0.138E-02    0.343E-01
RMM:   7    -0.116025094799E+04    0.17739E-02   -0.24050E-03 11019   0.587E-02    0.334E-01
RMM:   8    -0.116025084351E+04    0.10448E-03   -0.27261E-04  8341   0.205E-02    0.204E-01
RMM:   9    -0.116025071491E+04    0.12860E-03   -0.12111E-04  7738   0.146E-02    0.731E-02
RMM:  10    -0.116025063812E+04    0.76789E-04   -0.29005E-04  8883   0.182E-02
   2 F= -.11602506E+04 E0= -.11602414E+04  d E =-.405417E-02  mag=     8.0053
       N       E                     dE             d eps       ncg     rms          rms(c)
DAV:   1    -0.116025267313E+04   -0.19582E-02   -0.44492E-01 12920   0.761E-01    0.272E-01
RMM:   2    -0.116025372859E+04   -0.10555E-02   -0.16066E-02 12275   0.161E-01    0.369E-01
RMM:   3    -0.116025386546E+04   -0.13687E-03   -0.81564E-04 11354   0.486E-02    0.367E-01
RMM:   4    -0.116025376747E+04    0.97992E-04   -0.11855E-04  7784   0.153E-02    0.348E-01
RMM:   5    -0.116025356926E+04    0.19821E-03   -0.12011E-04  7614   0.141E-02    0.326E-01
RMM:   6    -0.116025327108E+04    0.29818E-03   -0.68408E-04 10551   0.258E-02    0.234E-01
RMM:   7    -0.116025358935E+04   -0.31827E-03   -0.12828E-03 10702   0.402E-02    0.146E-01
RMM:   8    -0.116025385242E+04   -0.26307E-03   -0.87681E-05  7601   0.141E-02    0.150E-01
RMM:   9    -0.116025340071E+04    0.45171E-03   -0.21627E-04  8269   0.213E-02    0.192E-01
RMM:  10    -0.116025340795E+04   -0.72423E-05   -0.39613E-05  6957   0.816E-03
   3 F= -.11602534E+04 E0= -.11602450E+04  d E =-.276983E-02  mag=     8.0054
       N       E                     dE             d eps       ncg     rms          rms(c)
DAV:   1    -0.116025436245E+04   -0.96174E-03   -0.19236E-01 12640   0.510E-01    0.209E-01
RMM:   2    -0.116025639139E+04   -0.20289E-02   -0.64733E-03 12268   0.105E-01    0.413E-01
RMM:   3    -0.116025653873E+04   -0.14734E-03   -0.33517E-04  9034   0.348E-02    0.400E-01
RMM:   4    -0.116025602987E+04    0.50886E-03   -0.12494E-04  7183   0.155E-02    0.363E-01
RMM:   5    -0.116025585249E+04    0.17738E-03   -0.32594E-05  6715   0.799E-03    0.358E-01
RMM:   6    -0.116025428104E+04    0.15715E-02   -0.11743E-03 10423   0.375E-02    0.207E-01
RMM:   7    -0.116025400317E+04    0.27788E-03   -0.41055E-04  9436   0.204E-02    0.148E-01
RMM:   8    -0.116025394206E+04    0.61108E-04   -0.46174E-04 10125   0.220E-02
   4 F= -.11602539E+04 E0= -.11602447E+04  d E =-.534106E-03  mag=     8.0055
       N       E                     dE             d eps       ncg     rms          rms(c)
DAV:   1    -0.116025481979E+04   -0.81663E-03   -0.14787E-01 12568   0.449E-01    0.174E-01
RMM:   2    -0.116025555390E+04   -0.73411E-03   -0.38862E-03 12324   0.816E-02    0.210E-01
RMM:   3    -0.116025589791E+04   -0.34401E-03   -0.42804E-04  9110   0.341E-02    0.269E-01
RMM:   4    -0.116025529857E+04    0.59935E-03   -0.60728E-04  9256   0.293E-02    0.172E-01
RMM:   5    -0.116025512649E+04    0.17208E-03   -0.21495E-04  7952   0.143E-02    0.118E-01
RMM:   6    -0.116025524187E+04   -0.11538E-03   -0.14299E-04  7652   0.125E-02    0.916E-02
RMM:   7    -0.116025546248E+04   -0.22061E-03   -0.36031E-05  6821   0.943E-03    0.104E-01
RMM:   8    -0.116025508558E+04    0.37690E-03   -0.56452E-05  6850   0.118E-02    0.970E-02
RMM:   9    -0.116025493181E+04    0.15377E-03   -0.10299E-04  6953   0.124E-02    0.724E-02
RMM:  10    -0.116025492988E+04    0.19339E-05   -0.49705E-05  6808   0.871E-03
   5 F= -.11602549E+04 E0= -.11602458E+04  d E =-.987818E-03  mag=     8.0057
       N       E                     dE             d eps       ncg     rms          rms(c)
DAV:   1    -0.116025546370E+04   -0.53189E-03   -0.21935E-01 12656   0.544E-01    0.109E-01
RMM:   2    -0.116025597940E+04   -0.51570E-03   -0.55329E-03 12619   0.938E-02    0.989E-02
RMM:   3    -0.116025600177E+04   -0.22373E-04   -0.24767E-04  8109   0.319E-02    0.699E-02
RMM:   4    -0.116025608598E+04   -0.84205E-04   -0.10929E-04  7323   0.139E-02    0.113E-01
RMM:   5    -0.116025602666E+04    0.59313E-04   -0.48387E-05  6820   0.114E-02    0.792E-02
RMM:   6    -0.116025601298E+04    0.13681E-04   -0.15277E-05  6409   0.468E-03    0.938E-02
RMM:   7    -0.116025597631E+04    0.36676E-04   -0.13063E-04  7303   0.129E-02    0.329E-02
RMM:   8    -0.116025601615E+04   -0.39844E-04   -0.33854E-05  6705   0.650E-03
   6 F= -.11602560E+04 E0= -.11602470E+04  d E =-.108627E-02  mag=     8.0056
       N       E                     dE             d eps       ncg     rms          rms(c)
DAV:   1    -0.116025643041E+04   -0.45411E-03   -0.25907E-01 12680   0.589E-01    0.117E-01
RMM:   2    -0.116025712850E+04   -0.69809E-03   -0.64731E-03 12575   0.101E-01    0.133E-01
RMM:   3    -0.116025726048E+04   -0.13198E-03   -0.38275E-04  9178   0.368E-02    0.165E-01
RMM:   4    -0.116025715374E+04    0.10674E-03   -0.84997E-05  7088   0.141E-02    0.132E-01
RMM:   5    -0.116025706207E+04    0.91666E-04   -0.98181E-05  7231   0.110E-02    0.956E-02
RMM:   6    -0.116025709125E+04   -0.29177E-04   -0.13789E-04  7446   0.119E-02    0.559E-02
RMM:   7    -0.116025725298E+04   -0.16173E-03   -0.40502E-05  6951   0.889E-03    0.728E-02
RMM:   8    -0.116025701247E+04    0.24051E-03   -0.51860E-05  6814   0.112E-02    0.772E-02
RMM:   9    -0.116025693977E+04    0.72704E-04   -0.88838E-05  7216   0.115E-02
   7 F= -.11602569E+04 E0= -.11602479E+04  d E =-.923618E-03  mag=     8.0055
       N       E                     dE             d eps       ncg     rms          rms(c)
DAV:   1    -0.116025643432E+04    0.57815E-03   -0.10446E+00 12704   0.118E+00    0.231E-01
RMM:   2    -0.116025886237E+04   -0.24280E-02   -0.25807E-02 12789   0.200E-01    0.156E-01
RMM:   3    -0.116025894590E+04   -0.83527E-04   -0.13548E-03 11845   0.693E-02    0.141E-01
RMM:   4    -0.116025914791E+04   -0.20201E-03   -0.33656E-04  8901   0.238E-02    0.161E-01
RMM:   5    -0.116025902648E+04    0.12143E-03   -0.77560E-05  7147   0.147E-02    0.129E-01
RMM:   6    -0.116025887827E+04    0.14821E-03   -0.12878E-04  7217   0.129E-02    0.101E-01
RMM:   7    -0.116025881698E+04    0.61289E-04   -0.23353E-04  8008   0.160E-02    0.419E-02
RMM:   8    -0.116025886588E+04   -0.48894E-04   -0.45237E-05  7005   0.924E-03
   8 F= -.11602589E+04 E0= -.11602498E+04  d E =-.192611E-02  mag=     8.0054
       N       E                     dE             d eps       ncg     rms          rms(c)
DAV:   1    -0.116025742550E+04    0.13915E-02   -0.14080E+00 12656   0.137E+00    0.248E-01
RMM:   2    -0.116026080606E+04   -0.33806E-02   -0.34601E-02 12865   0.231E-01    0.175E-01
RMM:   3    -0.116026106815E+04   -0.26209E-03   -0.16836E-03 12322   0.755E-02    0.154E-01
RMM:   4    -0.116026171231E+04   -0.64416E-03   -0.50962E-04  9841   0.297E-02    0.225E-01
RMM:   5    -0.116026121321E+04    0.49911E-03   -0.31715E-04  8273   0.241E-02    0.162E-01
RMM:   6    -0.116026126530E+04   -0.52091E-04   -0.75782E-05  7199   0.116E-02    0.175E-01
RMM:   7    -0.116026131585E+04   -0.50552E-04   -0.49678E-04  9392   0.244E-02    0.110E-01
RMM:   8    -0.116026114723E+04    0.16861E-03   -0.40992E-05  7033   0.101E-02    0.103E-01
RMM:   9    -0.116026061650E+04    0.53074E-03   -0.27433E-04  8225   0.217E-02    0.780E-02
RMM:  10    -0.116026065742E+04   -0.40928E-04   -0.92896E-05  7091   0.129E-02
   9 F= -.11602607E+04 E0= -.11602522E+04  d E =-.179155E-02  mag=     8.0054
       N       E                     dE             d eps       ncg     rms          rms(c)
DAV:   1    -0.116026075519E+04   -0.13869E-03   -0.19269E-01 12656   0.505E-01    0.104E-01
RMM:   2    -0.116026141200E+04   -0.65681E-03   -0.50513E-03 12693   0.894E-02    0.189E-01
RMM:   3    -0.116026147049E+04   -0.58492E-04   -0.22611E-04  8023   0.284E-02    0.189E-01
RMM:   4    -0.116026146545E+04    0.50371E-05   -0.48047E-05  6985   0.998E-03    0.186E-01
RMM:   5    -0.116026137059E+04    0.94864E-04   -0.64655E-05  7010   0.976E-03    0.179E-01
RMM:   6    -0.116026134832E+04    0.22272E-04   -0.14086E-05  6247   0.538E-03    0.184E-01
RMM:   7    -0.116026114786E+04    0.20046E-03   -0.22402E-04  8155   0.170E-02    0.109E-01
RMM:   8    -0.116026112413E+04    0.23726E-04   -0.12033E-04  7447   0.104E-02
  10 F= -.11602611E+04 E0= -.11602520E+04  d E =-.466709E-03  mag=     8.0055
       N       E                     dE             d eps       ncg     rms          rms(c)
DAV:   1    -0.116026116522E+04   -0.17366E-04   -0.33443E-01 12728   0.663E-01    0.139E-01
RMM:   2    -0.116026194432E+04   -0.77909E-03   -0.81430E-03 12607   0.112E-01    0.105E-01
RMM:   3    -0.116026201058E+04   -0.66260E-04   -0.38587E-04  8874   0.381E-02    0.837E-02
RMM:   4    -0.116026214598E+04   -0.13540E-03   -0.89026E-05  7232   0.134E-02    0.768E-02
RMM:   5    -0.116026241561E+04   -0.26963E-03   -0.50921E-05  7139   0.930E-03    0.995E-02
RMM:   6    -0.116026212584E+04    0.28977E-03   -0.81956E-05  7014   0.131E-02    0.834E-02
RMM:   7    -0.116026197580E+04    0.15004E-03   -0.93094E-05  7217   0.104E-02    0.568E-02
RMM:   8    -0.116026199858E+04   -0.22771E-04   -0.34769E-05  6741   0.643E-03
  11 F= -.11602620E+04 E0= -.11602533E+04  d E =-.874443E-03  mag=     8.0055
       N       E                     dE             d eps       ncg     rms          rms(c)
DAV:   1    -0.116026200893E+04   -0.33128E-04   -0.21437E-01 12296   0.530E-01    0.104E-01
RMM:   2    -0.116026251317E+04   -0.50424E-03   -0.53458E-03 12618   0.908E-02    0.110E-01
RMM:   3    -0.116026255070E+04   -0.37528E-04   -0.25426E-04  8032   0.293E-02    0.800E-02
RMM:   4    -0.116026259751E+04   -0.46811E-04   -0.73494E-05  7087   0.114E-02    0.754E-02
RMM:   5    -0.116026268550E+04   -0.87988E-04   -0.29696E-05  6657   0.702E-03    0.891E-02
RMM:   6    -0.116026256981E+04    0.11569E-03   -0.46630E-05  6726   0.919E-03    0.677E-02
RMM:   7    -0.116026253395E+04    0.35859E-04   -0.46338E-05  6855   0.732E-03    0.466E-02
RMM:   8    -0.116026259789E+04   -0.63937E-04   -0.15826E-05  6290   0.546E-03
  12 F= -.11602626E+04 E0= -.11602536E+04  d E =-.599316E-03  mag=     8.0054
       N       E                     dE             d eps       ncg     rms          rms(c)
DAV:   1    -0.116026256293E+04   -0.28981E-04   -0.27387E-01 12496   0.597E-01    0.112E-01
RMM:   2    -0.116026333543E+04   -0.77249E-03   -0.66175E-03 12596   0.100E-01    0.112E-01
RMM:   3    -0.116026352489E+04   -0.18947E-03   -0.32971E-04  8727   0.355E-02    0.123E-01
RMM:   4    -0.116026342467E+04    0.10022E-03   -0.66495E-05  7044   0.126E-02    0.104E-01
RMM:   5    -0.116026334802E+04    0.76655E-04   -0.36040E-05  6816   0.753E-03    0.103E-01
RMM:   6    -0.116026325781E+04    0.90207E-04   -0.12457E-04  7344   0.124E-02    0.730E-02
RMM:   7    -0.116026350196E+04   -0.24415E-03   -0.10451E-04  7374   0.115E-02    0.936E-02
RMM:   8    -0.116026328228E+04    0.21968E-03   -0.49935E-05  6843   0.120E-02    0.109E-01
RMM:   9    -0.116026309361E+04    0.18867E-03   -0.77564E-05  6975   0.111E-02    0.645E-02
RMM:  10    -0.116026314864E+04   -0.55027E-04   -0.22606E-05  6151   0.623E-03
  13 F= -.11602631E+04 E0= -.11602544E+04  d E =-.550745E-03  mag=     8.0054
       N       E                     dE             d eps       ncg     rms          rms(c)
DAV:   1    -0.116026290892E+04    0.18469E-03   -0.45661E-01 12528   0.770E-01    0.164E-01
RMM:   2    -0.116026423636E+04   -0.13274E-02   -0.11297E-02 12499   0.131E-01    0.218E-01
RMM:   3    -0.116026449897E+04   -0.26261E-03   -0.66802E-04 10384   0.484E-02    0.232E-01
RMM:   4    -0.116026431351E+04    0.18546E-03   -0.10334E-04  7169   0.152E-02    0.197E-01
RMM:   5    -0.116026398416E+04    0.32936E-03   -0.23971E-04  7897   0.169E-02    0.132E-01
RMM:   6    -0.116026390397E+04    0.80190E-04   -0.31553E-04  8635   0.169E-02    0.741E-02
RMM:   7    -0.116026401619E+04   -0.11223E-03   -0.12233E-04  7534   0.129E-02    0.708E-02
RMM:   8    -0.116026401629E+04   -0.10022E-06   -0.24475E-05  6780   0.755E-03
  14 F= -.11602640E+04 E0= -.11602549E+04  d E =-.867655E-03  mag=     8.0053
       N       E                     dE             d eps       ncg     rms          rms(c)
DAV:   1    -0.116026378640E+04    0.22979E-03   -0.34756E-01 12464   0.672E-01    0.147E-01
RMM:   2    -0.116026492149E+04   -0.11351E-02   -0.86575E-03 12541   0.115E-01    0.174E-01
RMM:   3    -0.116026523997E+04   -0.31848E-03   -0.49489E-04  9658   0.411E-02    0.198E-01
RMM:   4    -0.116026477210E+04    0.46786E-03   -0.26815E-04  7951   0.223E-02    0.114E-01
RMM:   5    -0.116026482756E+04   -0.55460E-04   -0.10486E-04  7179   0.117E-02    0.106E-01
RMM:   6    -0.116026507371E+04   -0.24615E-03   -0.10419E-04  7417   0.112E-02    0.102E-01
RMM:   7    -0.116026510189E+04   -0.28174E-04   -0.19516E-05  6609   0.702E-03    0.106E-01
RMM:   8    -0.116026497997E+04    0.12191E-03   -0.29050E-05  6560   0.731E-03    0.978E-02
RMM:   9    -0.116026495438E+04    0.25586E-04   -0.82292E-06  5549   0.397E-03
  15 F= -.11602650E+04 E0= -.11602562E+04  d E =-.938094E-03  mag=     8.0054
