       N       E                     dE             d eps       ncg     rms          rms(c)
DAV:   1     0.120051173141E+05    0.12005E+05   -0.42371E+05 12352   0.132E+03
DAV:   2     0.681153486057E+03   -0.11324E+05   -0.10113E+05 12312   0.377E+02
DAV:   3    -0.135451372534E+04   -0.20357E+04   -0.19608E+04 13208   0.167E+02
DAV:   4    -0.149263960323E+04   -0.13813E+03   -0.13571E+03 16192   0.457E+01
DAV:   5    -0.150170061549E+04   -0.90610E+01   -0.90120E+01 22176   0.108E+01    0.183E+02
RMM:   6    -0.116261864813E+04    0.33908E+03   -0.16107E+03 12551   0.355E+01    0.121E+02
RMM:   7    -0.114705300342E+04    0.15566E+02   -0.61580E+01 12811   0.119E+01    0.726E+01
RMM:   8    -0.116131548025E+04   -0.14262E+02   -0.24252E+01 14040   0.555E+00    0.570E+01
RMM:   9    -0.119390012435E+04   -0.32585E+02   -0.16874E+02 15804   0.107E+01    0.889E+01
RMM:  10    -0.117848444320E+04    0.15416E+02   -0.18607E+01 12818   0.472E+00    0.460E+01
RMM:  11    -0.115209568690E+04    0.26389E+02   -0.19725E+01 12604   0.453E+00    0.277E+01
RMM:  12    -0.115171798463E+04    0.37770E+00   -0.32829E+00 13736   0.165E+00    0.220E+01
RMM:  13    -0.115232790745E+04   -0.60992E+00   -0.16012E+00 13221   0.146E+00    0.175E+01
RMM:  14    -0.115273485938E+04   -0.40695E+00   -0.50432E-01 15677   0.743E-01    0.155E+01
RMM:  15    -0.115415729031E+04   -0.14224E+01   -0.14463E+00 13218   0.138E+00    0.102E+01
RMM:  16    -0.115585573632E+04   -0.16984E+01   -0.17014E+00 13208   0.136E+00    0.982E+00
RMM:  17    -0.115646712716E+04   -0.61139E+00   -0.48527E-01 13455   0.705E-01    0.833E+00
RMM:  18    -0.115661759273E+04   -0.15047E+00   -0.47985E-01 13075   0.727E-01    0.629E+00
RMM:  19    -0.115668954040E+04   -0.71948E-01   -0.27129E-01 13892   0.521E-01    0.468E+00
RMM:  20    -0.115709511505E+04   -0.40557E+00   -0.28085E-01 12902   0.557E-01    0.395E+00
RMM:  21    -0.115717399403E+04   -0.78879E-01   -0.56361E-02 13014   0.303E-01    0.401E+00
RMM:  22    -0.115730751250E+04   -0.13352E+00   -0.86224E-02 12728   0.318E-01    0.372E+00
RMM:  23    -0.115747012858E+04   -0.16262E+00   -0.25735E-01 12721   0.610E-01    0.293E+00
RMM:  24    -0.115754821138E+04   -0.78083E-01   -0.20770E-01 13468   0.524E-01    0.215E+00
RMM:  25    -0.115761488931E+04   -0.66678E-01   -0.12766E-01 13605   0.383E-01    0.144E+00
RMM:  26    -0.115762184126E+04   -0.69520E-02   -0.30867E-02 15014   0.185E-01    0.951E-01
RMM:  27    -0.115762703612E+04   -0.51949E-02   -0.15016E-02 13401   0.123E-01    0.640E-01
RMM:  28    -0.115763354746E+04   -0.65113E-02   -0.10027E-02 13510   0.937E-02    0.480E-01
RMM:  29    -0.115763975098E+04   -0.62035E-02   -0.53520E-03 12859   0.814E-02    0.305E-01
RMM:  30    -0.115764425155E+04   -0.45006E-02   -0.34393E-03 11437   0.700E-02    0.196E-01
RMM:  31    -0.115764713870E+04   -0.28872E-02   -0.22288E-03 10789   0.565E-02    0.186E-01
RMM:  32    -0.115764939973E+04   -0.22610E-02   -0.16277E-03 10428   0.462E-02    0.187E-01
RMM:  33    -0.115765275740E+04   -0.33577E-02   -0.29062E-03 10521   0.611E-02    0.146E-01
RMM:  34    -0.115765561661E+04   -0.28592E-02   -0.29263E-03 10311   0.600E-02    0.150E-01
RMM:  35    -0.115765893567E+04   -0.33191E-02   -0.44267E-03 10537   0.731E-02    0.152E-01
RMM:  36    -0.115766314066E+04   -0.42050E-02   -0.10721E-02 10986   0.117E-01    0.117E-01
RMM:  37    -0.115766485229E+04   -0.17116E-02   -0.41086E-03 10881   0.613E-02    0.104E-01
RMM:  38    -0.115766649230E+04   -0.16400E-02   -0.37447E-03 10464   0.655E-02    0.115E-01
RMM:  39    -0.115766749675E+04   -0.10045E-02   -0.25971E-03  9991   0.518E-02    0.113E-01
RMM:  40    -0.115766838765E+04   -0.89090E-03   -0.56318E-03 10538   0.833E-02
   1 F= -.11576684E+04 E0= -.11576683E+04  d E =-.115767E+04  mag=     2.0064
       N       E                     dE             d eps       ncg     rms          rms(c)
DAV:   1    -0.110350391108E+04    0.54164E+02   -0.23682E+03 12784   0.405E+01    0.427E+01
RMM:   2    -0.116036011630E+04   -0.56856E+02   -0.33825E+02 14747   0.144E+01    0.427E+01
RMM:   3    -0.115964799147E+04    0.71212E+00   -0.21545E+01 13067   0.523E+00    0.244E+01
RMM:   4    -0.115754779659E+04    0.21002E+01   -0.83895E+00 14523   0.286E+00    0.236E+01
RMM:   5    -0.115715197554E+04    0.39582E+00   -0.17582E+00 15870   0.114E+00    0.165E+01
RMM:   6    -0.115671852260E+04    0.43345E+00   -0.17540E+00 13114   0.110E+00    0.137E+01
RMM:   7    -0.115671734165E+04    0.11809E-02   -0.90875E-01 14257   0.912E-01    0.741E+00
RMM:   8    -0.115668841086E+04    0.28931E-01   -0.27047E-01 15394   0.436E-01    0.276E+00
RMM:   9    -0.115669715991E+04   -0.87491E-02   -0.79375E-02 17052   0.205E-01    0.192E+00
RMM:  10    -0.115670773424E+04   -0.10574E-01   -0.33957E-02 14547   0.186E-01    0.734E-01
RMM:  11    -0.115671027532E+04   -0.25411E-02   -0.16844E-02 15441   0.104E-01    0.351E-01
RMM:  12    -0.115671205478E+04   -0.17795E-02   -0.60573E-03 14438   0.615E-02    0.257E-01
RMM:  13    -0.115671425306E+04   -0.21983E-02   -0.31908E-03 12882   0.549E-02    0.181E-01
RMM:  14    -0.115671599930E+04   -0.17462E-02   -0.26078E-03 12472   0.509E-02    0.115E-01
RMM:  15    -0.115671739171E+04   -0.13924E-02   -0.18970E-03 11742   0.441E-02    0.957E-02
RMM:  16    -0.115671939933E+04   -0.20076E-02   -0.30926E-03 11381   0.650E-02    0.698E-02
RMM:  17    -0.115672052012E+04   -0.11208E-02   -0.19295E-03 10355   0.494E-02    0.577E-02
RMM:  18    -0.115672137566E+04   -0.85554E-03   -0.15749E-03  9737   0.437E-02    0.430E-02
RMM:  19    -0.115672200170E+04   -0.62603E-03   -0.12140E-03  9085   0.383E-02    0.359E-02
RMM:  20    -0.115672246806E+04   -0.46636E-03   -0.98504E-04  8730   0.340E-02    0.275E-02
RMM:  21    -0.115672284926E+04   -0.38120E-03   -0.12839E-03  8815   0.397E-02    0.191E-02
RMM:  22    -0.115672297962E+04   -0.13037E-03   -0.46315E-04  8055   0.210E-02    0.144E-02
RMM:  23    -0.115672304585E+04   -0.66226E-04   -0.21807E-04  7483   0.164E-02
   2 F= -.11567230E+04 E0= -.11567230E+04  d E =0.945342E+00  mag=     0.0087
       N       E                     dE             d eps       ncg     rms          rms(c)
DAV:   1    -0.115151828106E+04    0.52047E+01   -0.49352E+02 12512   0.210E+01    0.199E+01
RMM:   2    -0.115838872440E+04   -0.68704E+01   -0.32601E+01 12537   0.648E+00    0.280E+01
RMM:   3    -0.115881719117E+04   -0.42847E+00   -0.31078E+00 13384   0.249E+00    0.870E+00
RMM:   4    -0.115867433476E+04    0.14286E+00   -0.10604E+00 13707   0.125E+00    0.740E+00
RMM:   5    -0.115862710347E+04    0.47231E-01   -0.56037E-01 13032   0.805E-01    0.592E+00
RMM:   6    -0.115863303185E+04   -0.59284E-02   -0.11206E-01 14729   0.378E-01    0.192E+00
RMM:   7    -0.115863913663E+04   -0.61048E-02   -0.24030E-02 15044   0.145E-01    0.720E-01
RMM:   8    -0.115863984173E+04   -0.70511E-03   -0.48698E-03 14395   0.612E-02    0.381E-01
RMM:   9    -0.115864088042E+04   -0.10387E-02   -0.17223E-03 12596   0.432E-02    0.161E-01
RMM:  10    -0.115864180151E+04   -0.92109E-03   -0.10410E-03 10472   0.384E-02    0.108E-01
RMM:  11    -0.115864247402E+04   -0.67251E-03   -0.65624E-04  9238   0.233E-02    0.104E-01
RMM:  12    -0.115864341181E+04   -0.93778E-03   -0.64210E-04  9056   0.248E-02    0.102E-01
RMM:  13    -0.115864439556E+04   -0.98375E-03   -0.66264E-04  8769   0.258E-02    0.103E-01
RMM:  14    -0.115864428235E+04    0.11321E-03   -0.10863E-04  7763   0.122E-02    0.104E-01
RMM:  15    -0.115864431967E+04   -0.37324E-04   -0.42135E-05  7459   0.828E-03
   3 F= -.11586443E+04 E0= -.11586443E+04  d E =-.192127E+01  mag=     0.0017
       N       E                     dE             d eps       ncg     rms          rms(c)
DAV:   1    -0.115878885355E+04   -0.14457E+00   -0.57939E+01 12920   0.730E+00    0.407E+00
RMM:   2    -0.115901656195E+04   -0.22771E+00   -0.16092E+00 12351   0.154E+00    0.298E+00
RMM:   3    -0.115903445425E+04   -0.17892E-01   -0.11049E-01 13273   0.613E-01    0.170E+00
RMM:   4    -0.115902944022E+04    0.50140E-02   -0.46342E-02 14182   0.238E-01    0.768E-01
RMM:   5    -0.115903093805E+04   -0.14978E-02   -0.99932E-03 12563   0.134E-01    0.310E-01
RMM:   6    -0.115903267585E+04   -0.17378E-02   -0.30812E-03 13453   0.540E-02    0.241E-01
RMM:   7    -0.115903468952E+04   -0.20137E-02   -0.14353E-03 11320   0.344E-02    0.207E-01
RMM:   8    -0.115903892176E+04   -0.42322E-02   -0.31889E-03 10606   0.564E-02    0.183E-01
RMM:   9    -0.115904115235E+04   -0.22306E-02   -0.16734E-03  9931   0.370E-02    0.183E-01
RMM:  10    -0.115904202561E+04   -0.87326E-03   -0.44322E-04  8542   0.197E-02    0.183E-01
RMM:  11    -0.115904080685E+04    0.12188E-02   -0.16338E-04  7706   0.198E-02    0.184E-01
RMM:  12    -0.115904633425E+04   -0.55274E-02   -0.35755E-03 10207   0.652E-02    0.177E-01
RMM:  13    -0.115905842313E+04   -0.12089E-01   -0.24908E-02 11307   0.162E-01    0.166E-01
RMM:  14    -0.115905813078E+04    0.29235E-03   -0.22722E-03  9965   0.400E-02    0.181E-01
RMM:  15    -0.115907099014E+04   -0.12859E-01   -0.36090E-02 11557   0.193E-01    0.195E-01
RMM:  16    -0.115907244341E+04   -0.14533E-02   -0.30464E-03 10372   0.463E-02    0.154E-01
RMM:  17    -0.115907348823E+04   -0.10448E-02   -0.69177E-04  8417   0.218E-02    0.153E-01
RMM:  18    -0.115907921601E+04   -0.57278E-02   -0.74119E-03 10336   0.803E-02    0.151E-01
RMM:  19    -0.115909045976E+04   -0.11244E-01   -0.34486E-02 11440   0.182E-01    0.134E-01
RMM:  20    -0.115909678508E+04   -0.63253E-02   -0.25522E-02 11136   0.143E-01    0.173E-01
RMM:  21    -0.115908493567E+04    0.11849E-01   -0.12823E-02 11004   0.136E-01    0.252E-01
RMM:  22    -0.115909155640E+04   -0.66207E-02   -0.55599E-03 10466   0.921E-02    0.260E-01
RMM:  23    -0.115908969574E+04    0.18607E-02   -0.12459E-03  9177   0.435E-02    0.237E-01
RMM:  24    -0.115907504706E+04    0.14649E-01   -0.50963E-02 11919   0.236E-01    0.194E-01
RMM:  25    -0.115909483610E+04   -0.19789E-01   -0.11637E-01 12208   0.377E-01    0.235E-01
RMM:  26    -0.115910113708E+04   -0.63010E-02   -0.41460E-02 11621   0.192E-01    0.256E-01
RMM:  27    -0.115910678035E+04   -0.56433E-02   -0.56139E-03 10556   0.850E-02    0.690E-02
RMM:  28    -0.115910974298E+04   -0.29626E-02   -0.37135E-02 11495   0.182E-01    0.171E-01
RMM:  29    -0.115911050390E+04   -0.76092E-03   -0.50911E-03 10359   0.455E-02    0.174E-01
RMM:  30    -0.115911091913E+04   -0.41523E-03   -0.28350E-03  9865   0.649E-02    0.925E-02
RMM:  31    -0.115911019921E+04    0.71992E-03   -0.18223E-03  8708   0.393E-02    0.815E-02
RMM:  32    -0.115911021659E+04   -0.17382E-04   -0.18338E-04  7047   0.119E-02
   4 F= -.11591102E+04 E0= -.11591102E+04  d E =-.465897E+00  mag=     0.0002
       N       E                     dE             d eps       ncg     rms          rms(c)
DAV:   1    -0.115886763781E+04    0.24256E+00   -0.61752E+01 12592   0.667E+00    0.509E+00
RMM:   2    -0.115938913418E+04   -0.52150E+00   -0.13603E+00 12486   0.131E+00    0.365E+00
RMM:   3    -0.115945073530E+04   -0.61601E-01   -0.97771E-02 12932   0.544E-01    0.138E+00
RMM:   4    -0.115944804201E+04    0.26933E-02   -0.27295E-02 14782   0.181E-01    0.720E-01
RMM:   5    -0.115944857253E+04   -0.53052E-03   -0.11004E-02 13575   0.954E-02    0.293E-01
RMM:   6    -0.115944969240E+04   -0.11199E-02   -0.19816E-03 12148   0.497E-02    0.203E-01
RMM:   7    -0.115945068644E+04   -0.99405E-03   -0.90010E-04 10275   0.288E-02    0.154E-01
RMM:   8    -0.115945262412E+04   -0.19377E-02   -0.18648E-03 10233   0.420E-02    0.112E-01
RMM:   9    -0.115945358295E+04   -0.95883E-03   -0.99182E-04  9178   0.286E-02    0.104E-01
RMM:  10    -0.115945525418E+04   -0.16712E-02   -0.19710E-03  9726   0.414E-02    0.894E-02
RMM:  11    -0.115945842402E+04   -0.31698E-02   -0.11444E-02 10720   0.104E-01    0.622E-02
RMM:  12    -0.115945926431E+04   -0.84029E-03   -0.32746E-03 10293   0.498E-02    0.520E-02
RMM:  13    -0.115945988275E+04   -0.61844E-03   -0.18910E-03  9635   0.398E-02    0.435E-02
RMM:  14    -0.115946037795E+04   -0.49520E-03   -0.22734E-03  9643   0.448E-02    0.309E-02
RMM:  15    -0.115946063258E+04   -0.25462E-03   -0.16148E-03  9250   0.360E-02    0.183E-02
RMM:  16    -0.115946072128E+04   -0.88702E-04   -0.64517E-04  8285   0.217E-02
   5 F= -.11594607E+04 E0= -.11594607E+04  d E =-.350505E+00  mag=    -0.0000
       N       E                     dE             d eps       ncg     rms          rms(c)
DAV:   1    -0.115927972877E+04    0.18090E+00   -0.43542E+01 12624   0.632E+00    0.400E+00
RMM:   2    -0.115955313587E+04   -0.27341E+00   -0.98271E-01 12450   0.122E+00    0.286E+00
RMM:   3    -0.115959076648E+04   -0.37631E-01   -0.71471E-02 12642   0.521E-01    0.138E+00
RMM:   4    -0.115958854605E+04    0.22204E-02   -0.22621E-02 14695   0.165E-01    0.634E-01
RMM:   5    -0.115958818886E+04    0.35719E-03   -0.52383E-03 13192   0.876E-02    0.252E-01
RMM:   6    -0.115958829270E+04   -0.10384E-03   -0.84264E-04 12587   0.323E-02    0.115E-01
RMM:   7    -0.115958835299E+04   -0.60290E-04   -0.23767E-04  8869   0.174E-02    0.706E-02
RMM:   8    -0.115958847642E+04   -0.12343E-03   -0.21076E-04  8373   0.172E-02    0.359E-02
RMM:   9    -0.115958853107E+04   -0.54654E-04   -0.89154E-05  7709   0.131E-02
   6 F= -.11595885E+04 E0= -.11595885E+04  d E =-.127810E+00  mag=    -0.0000
       N       E                     dE             d eps       ncg     rms          rms(c)
DAV:   1    -0.115957160065E+04    0.16876E-01   -0.19774E+01 12704   0.482E+00    0.175E+00
RMM:   2    -0.115963875478E+04   -0.67154E-01   -0.47361E-01 12603   0.905E-01    0.119E+00
RMM:   3    -0.115964513388E+04   -0.63791E-02   -0.30914E-02 12811   0.370E-01    0.587E-01
RMM:   4    -0.115964366807E+04    0.14658E-02   -0.88378E-03 15990   0.111E-01    0.350E-01
RMM:   5    -0.115964315085E+04    0.51722E-03   -0.36344E-03 13667   0.585E-02    0.110E-01
RMM:   6    -0.115964318560E+04   -0.34746E-04   -0.36768E-04  9980   0.283E-02    0.633E-02
RMM:   7    -0.115964323004E+04   -0.44444E-04   -0.18026E-04  8591   0.140E-02    0.438E-02
RMM:   8    -0.115964329695E+04   -0.66910E-04   -0.12314E-04  7927   0.144E-02
   7 F= -.11596433E+04 E0= -.11596433E+04  d E =-.547659E-01  mag=    -0.0000
       N       E                     dE             d eps       ncg     rms          rms(c)
DAV:   1    -0.115963863642E+04    0.45936E-02   -0.15214E+01 12712   0.406E+00    0.130E+00
RMM:   2    -0.115967707096E+04   -0.38435E-01   -0.38184E-01 12758   0.797E-01    0.994E-01
RMM:   3    -0.115967940464E+04   -0.23337E-02   -0.31992E-02 13395   0.287E-01    0.669E-01
RMM:   4    -0.115967817929E+04    0.12254E-02   -0.66651E-03 15741   0.872E-02    0.350E-01
RMM:   5    -0.115967808013E+04    0.99157E-04   -0.20455E-03 13577   0.417E-02    0.102E-01
RMM:   6    -0.115967810832E+04   -0.28194E-04   -0.29225E-04  9136   0.223E-02    0.576E-02
RMM:   7    -0.115967813585E+04   -0.27530E-04   -0.16619E-04  8031   0.135E-02    0.310E-02
RMM:   8    -0.115967815567E+04   -0.19817E-04   -0.96476E-05  7526   0.129E-02
   8 F= -.11596782E+04 E0= -.11596782E+04  d E =-.348587E-01  mag=     0.0000
       N       E                     dE             d eps       ncg     rms          rms(c)
DAV:   1    -0.115966148809E+04    0.16648E-01   -0.15671E+01 12624   0.440E+00    0.123E+00
RMM:   2    -0.115970656029E+04   -0.45072E-01   -0.36408E-01 13017   0.775E-01    0.787E-01
RMM:   3    -0.115970965149E+04   -0.30912E-02   -0.21485E-02 13364   0.313E-01    0.420E-01
RMM:   4    -0.115970899506E+04    0.65643E-03   -0.56329E-03 16758   0.913E-02    0.250E-01
RMM:   5    -0.115970882726E+04    0.16780E-03   -0.20572E-03 14599   0.420E-02    0.825E-02
RMM:   6    -0.115970886401E+04   -0.36754E-04   -0.27495E-04  9556   0.244E-02    0.369E-02
RMM:   7    -0.115970889919E+04   -0.35184E-04   -0.17098E-04  8163   0.135E-02    0.265E-02
RMM:   8    -0.115970893310E+04   -0.33908E-04   -0.10809E-04  7585   0.136E-02
   9 F= -.11597089E+04 E0= -.11597089E+04  d E =-.307774E-01  mag=     0.0000
       N       E                     dE             d eps       ncg     rms          rms(c)
DAV:   1    -0.115969566721E+04    0.13232E-01   -0.11081E+01 12680   0.376E+00    0.104E+00
RMM:   2    -0.115972690034E+04   -0.31233E-01   -0.25926E-01 13152   0.649E-01    0.633E-01
RMM:   3    -0.115972879957E+04   -0.18992E-02   -0.14808E-02 13486   0.263E-01    0.358E-01
RMM:   4    -0.115972836073E+04    0.43884E-03   -0.43315E-03 16631   0.794E-02    0.176E-01
RMM:   5    -0.115972837491E+04   -0.14185E-04   -0.12517E-03 13929   0.343E-02    0.569E-02
RMM:   6    -0.115972839733E+04   -0.22416E-04   -0.19804E-04  8761   0.205E-02    0.300E-02
RMM:   7    -0.115972842758E+04   -0.30251E-04   -0.13366E-04  7760   0.134E-02    0.215E-02
RMM:   8    -0.115972845611E+04   -0.28532E-04   -0.88200E-05  7396   0.122E-02
  10 F= -.11597285E+04 E0= -.11597285E+04  d E =-.195230E-01  mag=     0.0000
       N       E                     dE             d eps       ncg     rms          rms(c)
DAV:   1    -0.115972297618E+04    0.54514E-02   -0.89264E+00 12712   0.342E+00    0.655E-01
RMM:   2    -0.115974286610E+04   -0.19890E-01   -0.21434E-01 13034   0.596E-01    0.447E-01
RMM:   3    -0.115974320576E+04   -0.33966E-03   -0.13051E-02 13468   0.241E-01    0.301E-01
RMM:   4    -0.115974285205E+04    0.35372E-03   -0.33588E-03 16519   0.702E-02    0.179E-01
RMM:   5    -0.115974281573E+04    0.36317E-04   -0.11533E-03 13831   0.320E-02    0.426E-02
RMM:   6    -0.115974283369E+04   -0.17963E-04   -0.17706E-04  8282   0.201E-02    0.260E-02
RMM:   7    -0.115974285620E+04   -0.22507E-04   -0.11268E-04  7569   0.127E-02    0.180E-02
RMM:   8    -0.115974287279E+04   -0.16593E-04   -0.69039E-05  7315   0.121E-02
  11 F= -.11597429E+04 E0= -.11597429E+04  d E =-.144167E-01  mag=     0.0000
       N       E                     dE             d eps       ncg     rms          rms(c)
DAV:   1    -0.115973139353E+04    0.11463E-01   -0.10754E+01 12592   0.377E+00    0.707E-01
RMM:   2    -0.115975499479E+04   -0.23601E-01   -0.25785E-01 13032   0.647E-01    0.484E-01
RMM:   3    -0.115975518270E+04   -0.18792E-03   -0.14953E-02 13475   0.270E-01    0.321E-01
RMM:   4    -0.115975478227E+04    0.40043E-03   -0.42624E-03 16807   0.793E-02    0.193E-01
RMM:   5    -0.115975473915E+04    0.43125E-04   -0.12285E-03 14269   0.326E-02    0.453E-02
RMM:   6    -0.115975475664E+04   -0.17490E-04   -0.20737E-04  8724   0.205E-02    0.281E-02
RMM:   7    -0.115975477513E+04   -0.18492E-04   -0.12523E-04  7727   0.131E-02    0.203E-02
RMM:   8    -0.115975478871E+04   -0.13579E-04   -0.78714E-05  7382   0.119E-02
  12 F= -.11597548E+04 E0= -.11597548E+04  d E =-.119159E-01  mag=    -0.0000
       N       E                     dE             d eps       ncg     rms          rms(c)
DAV:   1    -0.115974879474E+04    0.59804E-02   -0.58760E+00 12768   0.278E+00    0.534E-01
RMM:   2    -0.115976224987E+04   -0.13455E-01   -0.14015E-01 13031   0.478E-01    0.353E-01
RMM:   3    -0.115976248447E+04   -0.23460E-03   -0.81036E-03 13371   0.201E-01    0.225E-01
RMM:   4    -0.115976226764E+04    0.21683E-03   -0.20993E-03 15694   0.573E-02    0.136E-01
RMM:   5    -0.115976222894E+04    0.38697E-04   -0.77013E-04 12470   0.279E-02    0.346E-02
RMM:   6    -0.115976223986E+04   -0.10916E-04   -0.12193E-04  7597   0.183E-02    0.192E-02
RMM:   7    -0.115976225272E+04   -0.12860E-04   -0.77591E-05  7321   0.115E-02    0.129E-02
RMM:   8    -0.115976226087E+04   -0.81537E-05   -0.44198E-05  7178   0.110E-02
  13 F= -.11597623E+04 E0= -.11597623E+04  d E =-.747216E-02  mag=    -0.0000
       N       E                     dE             d eps       ncg     rms          rms(c)
DAV:   1    -0.115975961491E+04    0.26378E-02   -0.30331E+00 12864   0.200E+00    0.403E-01
RMM:   2    -0.115976679978E+04   -0.71849E-02   -0.71519E-02 13016   0.340E-01    0.248E-01
RMM:   3    -0.115976697554E+04   -0.17576E-03   -0.41799E-03 13100   0.147E-01    0.153E-01
RMM:   4    -0.115976685991E+04    0.11563E-03   -0.10469E-03 13535   0.419E-02    0.846E-02
RMM:   5    -0.115976685362E+04    0.62914E-05   -0.33342E-04  9039   0.232E-02    0.249E-02
RMM:   6    -0.115976686192E+04   -0.83041E-05   -0.74186E-05  7251   0.168E-02    0.136E-02
RMM:   7    -0.115976686986E+04   -0.79388E-05   -0.51883E-05  7163   0.105E-02    0.918E-03
RMM:   8    -0.115976687507E+04   -0.52071E-05   -0.29610E-05  6995   0.103E-02
  14 F= -.11597669E+04 E0= -.11597669E+04  d E =-.461420E-02  mag=    -0.0000
       N       E                     dE             d eps       ncg     rms          rms(c)
DAV:   1    -0.115976358291E+04    0.32869E-02   -0.33168E+00 12688   0.209E+00    0.360E-01
RMM:   2    -0.115977090893E+04   -0.73260E-02   -0.78514E-02 13101   0.358E-01    0.227E-01
RMM:   3    -0.115977095871E+04   -0.49777E-04   -0.45023E-03 13215   0.152E-01    0.149E-01
RMM:   4    -0.115977083630E+04    0.12241E-03   -0.11357E-03 13824   0.434E-02    0.868E-02
RMM:   5    -0.115977082716E+04    0.91351E-05   -0.31265E-04  8995   0.226E-02    0.214E-02
RMM:   6    -0.115977083590E+04   -0.87356E-05   -0.76555E-05  7241   0.161E-02    0.130E-02
RMM:   7    -0.115977084247E+04   -0.65742E-05   -0.49820E-05  7141   0.107E-02    0.900E-03
RMM:   8    -0.115977084659E+04   -0.41135E-05   -0.29006E-05  6970   0.988E-03
  15 F= -.11597708E+04 E0= -.11597708E+04  d E =-.397152E-02  mag=    -0.0000
       N       E                     dE             d eps       ncg     rms          rms(c)
DAV:   1    -0.115976797448E+04    0.28680E-02   -0.25813E+00 12680   0.184E+00    0.322E-01
RMM:   2    -0.115977371969E+04   -0.57452E-02   -0.60900E-02 13036   0.315E-01    0.204E-01
RMM:   3    -0.115977378139E+04   -0.61707E-04   -0.35435E-03 13140   0.136E-01    0.132E-01
RMM:   4    -0.115977368969E+04    0.91702E-04   -0.83778E-04 12744   0.380E-02    0.821E-02
RMM:   5    -0.115977366932E+04    0.20366E-04   -0.26545E-04  8315   0.221E-02    0.204E-02
RMM:   6    -0.115977367761E+04   -0.82896E-05   -0.66405E-05  7207   0.164E-02    0.118E-02
RMM:   7    -0.115977368349E+04   -0.58780E-05   -0.44876E-05  7107   0.988E-03    0.871E-03
RMM:   8    -0.115977368678E+04   -0.32885E-05   -0.24260E-05  6941   0.101E-02
  16 F= -.11597737E+04 E0= -.11597737E+04  d E =-.284019E-02  mag=    -0.0000
       N       E                     dE             d eps       ncg     rms          rms(c)
DAV:   1    -0.115977012986E+04    0.35536E-02   -0.26568E+00 12736   0.187E+00    0.337E-01
RMM:   2    -0.115977615096E+04   -0.60211E-02   -0.62506E-02 13106   0.319E-01    0.201E-01
RMM:   3    -0.115977624113E+04   -0.90163E-04   -0.36527E-03 13131   0.137E-01    0.128E-01
RMM:   4    -0.115977614326E+04    0.97867E-04   -0.87132E-04 12927   0.389E-02    0.727E-02
RMM:   5    -0.115977613387E+04    0.93896E-05   -0.25336E-04  8227   0.216E-02    0.202E-02
RMM:   6    -0.115977614121E+04   -0.73400E-05   -0.63886E-05  7188   0.158E-02    0.112E-02
RMM:   7    -0.115977614678E+04   -0.55663E-05   -0.42667E-05  7113   0.986E-03    0.776E-03
RMM:   8    -0.115977615010E+04   -0.33193E-05   -0.24127E-05  6954   0.968E-03
  17 F= -.11597762E+04 E0= -.11597762E+04  d E =-.246331E-02  mag=    -0.0000
       N       E                     dE             d eps       ncg     rms          rms(c)
DAV:   1    -0.115977332561E+04    0.28212E-02   -0.20328E+00 12760   0.164E+00    0.288E-01
RMM:   2    -0.115977790353E+04   -0.45779E-02   -0.47966E-02 13127   0.280E-01    0.175E-01
RMM:   3    -0.115977795586E+04   -0.52323E-04   -0.27684E-03 13010   0.119E-01    0.112E-01
RMM:   4    -0.115977788227E+04    0.73584E-04   -0.62568E-04 11721   0.337E-02    0.679E-02
RMM:   5    -0.115977786981E+04    0.12464E-04   -0.19032E-04  7671   0.206E-02    0.188E-02
RMM:   6    -0.115977787746E+04   -0.76466E-05   -0.56682E-05  7162   0.153E-02    0.103E-02
RMM:   7    -0.115977788251E+04   -0.50555E-05   -0.38273E-05  7076   0.935E-03    0.727E-03
RMM:   8    -0.115977788534E+04   -0.28285E-05   -0.20876E-05  6872   0.925E-03
  18 F= -.11597779E+04 E0= -.11597779E+04  d E =-.173524E-02  mag=    -0.0000
       N       E                     dE             d eps       ncg     rms          rms(c)
DAV:   1    -0.115977533806E+04    0.25445E-02   -0.17141E+00 12704   0.151E+00    0.264E-01
RMM:   2    -0.115977919133E+04   -0.38533E-02   -0.40710E-02 13142   0.258E-01    0.159E-01
RMM:   3    -0.115977922394E+04   -0.32618E-04   -0.23428E-03 12756   0.109E-01    0.102E-01
RMM:   4    -0.115977915468E+04    0.69261E-04   -0.53769E-04 11187   0.317E-02    0.579E-02
RMM:   5    -0.115977915158E+04    0.31037E-05   -0.15271E-04  7431   0.197E-02    0.160E-02
RMM:   6    -0.115977915847E+04   -0.68923E-05   -0.50941E-05  7127   0.141E-02    0.943E-03
RMM:   7    -0.115977916287E+04   -0.43951E-05   -0.33660E-05  7054   0.911E-03    0.653E-03
RMM:   8    -0.115977916564E+04   -0.27699E-05   -0.19242E-05  6804   0.855E-03
  19 F= -.11597792E+04 E0= -.11597792E+04  d E =-.128030E-02  mag=    -0.0000
       N       E                     dE             d eps       ncg     rms          rms(c)
DAV:   1    -0.115977755431E+04    0.16086E-02   -0.10847E+00 12824   0.120E+00    0.211E-01
RMM:   2    -0.115978002359E+04   -0.24693E-02   -0.26049E-02 13215   0.207E-01    0.126E-01
RMM:   3    -0.115978004124E+04   -0.17645E-04   -0.14682E-03 12037   0.853E-02    0.815E-02
RMM:   4    -0.115977999680E+04    0.44442E-04   -0.30039E-04  8519   0.257E-02    0.474E-02
RMM:   5    -0.115977999552E+04    0.12748E-05   -0.10689E-04  7207   0.179E-02    0.116E-02
RMM:   6    -0.115978000148E+04   -0.59624E-05   -0.40927E-05  7094   0.129E-02    0.720E-03
RMM:   7    -0.115978000505E+04   -0.35710E-05   -0.27267E-05  6950   0.801E-03    0.566E-03
RMM:   8    -0.115978000751E+04   -0.24548E-05   -0.15593E-05  6756   0.784E-03
  20 F= -.11597800E+04 E0= -.11597800E+04  d E =-.841873E-03  mag=    -0.0000
       N       E                     dE             d eps       ncg     rms          rms(c)
DAV:   1    -0.115977853619E+04    0.14689E-02   -0.93490E-01 12776   0.112E+00    0.193E-01
RMM:   2    -0.115978066085E+04   -0.21247E-02   -0.22410E-02 13165   0.190E-01    0.117E-01
RMM:   3    -0.115978066515E+04   -0.42927E-05   -0.11996E-03 11782   0.752E-02    0.751E-02
RMM:   4    -0.115978062330E+04    0.41842E-04   -0.23051E-04  7905   0.232E-02    0.442E-02
RMM:   5    -0.115978062333E+04   -0.27474E-07   -0.92725E-05  7160   0.166E-02    0.102E-02
RMM:   6    -0.115978062874E+04   -0.54060E-05   -0.36515E-05  7069   0.121E-02    0.641E-03
RMM:   7    -0.115978063177E+04   -0.30315E-05   -0.23745E-05  6879   0.748E-03    0.545E-03
RMM:   8    -0.115978063378E+04   -0.20124E-05   -0.13531E-05  6731   0.731E-03
  21 F= -.11597806E+04 E0= -.11597806E+04  d E =-.626273E-03  mag=    -0.0000
       N       E                     dE             d eps       ncg     rms          rms(c)
DAV:   1    -0.115978024371E+04    0.38806E-03   -0.39652E-01 12880   0.730E-01    0.127E-01
RMM:   2    -0.115978114693E+04   -0.90322E-03   -0.96676E-03 13147   0.125E-01    0.770E-02
RMM:   3    -0.115978113803E+04    0.89004E-05   -0.46747E-04  9160   0.479E-02    0.497E-02
RMM:   4    -0.115978111999E+04    0.18041E-04   -0.10199E-04  7215   0.159E-02    0.299E-02
RMM:   5    -0.115978112128E+04   -0.12888E-05   -0.43244E-05  7045   0.115E-02    0.909E-03
RMM:   6    -0.115978112414E+04   -0.28617E-05   -0.19340E-05  6908   0.817E-03    0.515E-03
RMM:   7    -0.115978112579E+04   -0.16433E-05   -0.11948E-05  6701   0.568E-03    0.421E-03
RMM:   8    -0.115978112706E+04   -0.12735E-05   -0.76523E-06  6408   0.506E-03
  22 F= -.11597811E+04 E0= -.11597811E+04  d E =-.493278E-03  mag=    -0.0000
       N       E                     dE             d eps       ncg     rms          rms(c)
DAV:   1    -0.115978049646E+04    0.62933E-03   -0.50656E-01 12672   0.825E-01    0.144E-01
RMM:   2    -0.115978162895E+04   -0.11325E-02   -0.12104E-02 12845   0.140E-01    0.868E-02
RMM:   3    -0.115978163651E+04   -0.75577E-05   -0.68630E-04 10622   0.612E-02    0.559E-02
RMM:   4    -0.115978161457E+04    0.21936E-04   -0.13020E-04  7294   0.178E-02    0.343E-02
RMM:   5    -0.115978161494E+04   -0.36389E-06   -0.52370E-05  7079   0.130E-02    0.105E-02
RMM:   6    -0.115978161841E+04   -0.34725E-05   -0.24514E-05  6950   0.900E-03    0.603E-03
RMM:   7    -0.115978162025E+04   -0.18437E-05   -0.14454E-05  6738   0.641E-03    0.496E-03
RMM:   8    -0.115978162155E+04   -0.12986E-05   -0.91710E-06  6445   0.528E-03
  23 F= -.11597816E+04 E0= -.11597816E+04  d E =-.494495E-03  mag=    -0.0000
       N       E                     dE             d eps       ncg     rms          rms(c)
DAV:   1    -0.115978046885E+04    0.11514E-02   -0.74745E-01 12624   0.100E+00    0.175E-01
RMM:   2    -0.115978214353E+04   -0.16747E-02   -0.17771E-02 12836   0.169E-01    0.104E-01
RMM:   3    -0.115978215510E+04   -0.11570E-04   -0.99721E-04 11473   0.720E-02    0.669E-02
RMM:   4    -0.115978212283E+04    0.32268E-04   -0.18547E-04  7609   0.208E-02    0.405E-02
RMM:   5    -0.115978212162E+04    0.12105E-05   -0.73961E-05  7115   0.153E-02    0.102E-02
RMM:   6    -0.115978212629E+04   -0.46708E-05   -0.32529E-05  7013   0.108E-02    0.596E-03
RMM:   7    -0.115978212870E+04   -0.24148E-05   -0.19567E-05  6842   0.725E-03    0.517E-03
RMM:   8    -0.115978213037E+04   -0.16714E-05   -0.12010E-05  6620   0.631E-03
  24 F= -.11597821E+04 E0= -.11597821E+04  d E =-.508821E-03  mag=    -0.0000
       N       E                     dE             d eps       ncg     rms          rms(c)
DAV:   1    -0.115978178389E+04    0.34482E-03   -0.34506E-01 12640   0.682E-01    0.119E-01
RMM:   2    -0.115978256488E+04   -0.78099E-03   -0.83926E-03 13075   0.116E-01    0.716E-02
RMM:   3    -0.115978255657E+04    0.83018E-05   -0.40623E-04  8843   0.451E-02    0.462E-02
RMM:   4    -0.115978254179E+04    0.14784E-04   -0.87621E-05  7158   0.148E-02    0.304E-02
RMM:   5    -0.115978254232E+04   -0.53454E-06   -0.36009E-05  7034   0.106E-02    0.951E-03
RMM:   6    -0.115978254485E+04   -0.25270E-05   -0.17408E-05  6857   0.744E-03    0.496E-03
RMM:   7    -0.115978254621E+04   -0.13571E-05   -0.10254E-05  6672   0.550E-03    0.402E-03
RMM:   8    -0.115978254721E+04   -0.10059E-05   -0.67947E-06  6289   0.453E-03
  25 F= -.11597825E+04 E0= -.11597825E+04  d E =-.416839E-03  mag=    -0.0000
       N       E                     dE             d eps       ncg     rms          rms(c)
DAV:   1    -0.115978247975E+04    0.66457E-04   -0.16752E-01 12584   0.474E-01    0.856E-02
RMM:   2    -0.115978285878E+04   -0.37903E-03   -0.40542E-03 12898   0.810E-02    0.513E-02
RMM:   3    -0.115978285675E+04    0.20241E-05   -0.20275E-04  7680   0.342E-02    0.324E-02
RMM:   4    -0.115978285084E+04    0.59153E-05   -0.55741E-05  7028   0.107E-02    0.197E-02
RMM:   5    -0.115978285158E+04   -0.74424E-06   -0.18434E-05  6860   0.709E-03    0.652E-03
RMM:   6    -0.115978285279E+04   -0.12111E-05   -0.85843E-06  6643   0.530E-03    0.390E-03
RMM:   7    -0.115978285350E+04   -0.70641E-06   -0.52590E-06  6269   0.375E-03    0.302E-03
RMM:   8    -0.115978285398E+04   -0.47490E-06   -0.31394E-06  5417   0.341E-03
  26 F= -.11597829E+04 E0= -.11597829E+04  d E =-.306761E-03  mag=    -0.0000
       N       E                     dE             d eps       ncg     rms          rms(c)
DAV:   1    -0.115978266886E+04    0.18464E-03   -0.23900E-01 12576   0.566E-01    0.101E-01
RMM:   2    -0.115978320620E+04   -0.53734E-03   -0.57452E-03 13002   0.968E-02    0.602E-02
RMM:   3    -0.115978320559E+04    0.61278E-06   -0.29913E-04  8462   0.402E-02    0.383E-02
RMM:   4    -0.115978319632E+04    0.92612E-05   -0.64925E-05  7073   0.125E-02    0.242E-02
RMM:   5    -0.115978319628E+04    0.39465E-07   -0.25688E-05  6941   0.873E-03    0.759E-03
RMM:   6    -0.115978319795E+04   -0.16685E-05   -0.11651E-05  6660   0.620E-03    0.392E-03
RMM:   7    -0.115978319888E+04   -0.92322E-06   -0.69345E-06  6496   0.436E-03    0.317E-03
RMM:   8    -0.115978319952E+04   -0.64138E-06   -0.43154E-06  5979   0.379E-03
  27 F= -.11597832E+04 E0= -.11597832E+04  d E =-.345543E-03  mag=    -0.0000
       N       E                     dE             d eps       ncg     rms          rms(c)
DAV:   1    -0.115978331325E+04   -0.11438E-03   -0.11684E-01 12536   0.397E-01    0.725E-02
RMM:   2    -0.115978357537E+04   -0.26212E-03   -0.28326E-03 12723   0.676E-02    0.430E-02
RMM:   3    -0.115978357254E+04    0.28258E-05   -0.13267E-04  7101   0.286E-02    0.272E-02
RMM:   4    -0.115978356900E+04    0.35414E-05   -0.43478E-05  6923   0.901E-03    0.161E-02
RMM:   5    -0.115978356966E+04   -0.65817E-06   -0.12725E-05  6800   0.587E-03    0.525E-03
RMM:   6    -0.115978357051E+04   -0.84555E-06   -0.60607E-06  6551   0.428E-03    0.294E-03
RMM:   7    -0.115978357099E+04   -0.48302E-06   -0.32450E-06  5492   0.321E-03    0.220E-03
RMM:   8    -0.115978357132E+04   -0.33203E-06   -0.18673E-06  4307   0.269E-03
  28 F= -.11597836E+04 E0= -.11597836E+04  d E =-.371802E-03  mag=    -0.0000
       N       E                     dE             d eps       ncg     rms          rms(c)
DAV:   1    -0.115978372442E+04   -0.15343E-03   -0.11368E-01 12424   0.390E-01    0.720E-02
RMM:   2    -0.115978397818E+04   -0.25376E-03   -0.27499E-03 12905   0.673E-02    0.438E-02
RMM:   3    -0.115978397613E+04    0.20452E-05   -0.13212E-04  7149   0.277E-02    0.274E-02
RMM:   4    -0.115978397217E+04    0.39630E-05   -0.40553E-05  6883   0.903E-03    0.157E-02
RMM:   5    -0.115978397271E+04   -0.54143E-06   -0.12400E-05  6731   0.585E-03    0.542E-03
RMM:   6    -0.115978397346E+04   -0.75206E-06   -0.55831E-06  6503   0.425E-03    0.310E-03
RMM:   7    -0.115978397387E+04   -0.40622E-06   -0.30102E-06  5400   0.306E-03    0.231E-03
RMM:   8    -0.115978397410E+04   -0.22951E-06   -0.15211E-06  4036   0.262E-03
  29 F= -.11597840E+04 E0= -.11597840E+04  d E =-.402776E-03  mag=    -0.0000
       N       E                     dE             d eps       ncg     rms          rms(c)
DAV:   1    -0.115978387996E+04    0.93904E-04   -0.22672E-01 12568   0.552E-01    0.990E-02
RMM:   2    -0.115978438923E+04   -0.50927E-03   -0.54440E-03 13018   0.947E-02    0.583E-02
RMM:   3    -0.115978438947E+04   -0.24150E-06   -0.28318E-04  8345   0.396E-02    0.367E-02
RMM:   4    -0.115978438048E+04    0.89934E-05   -0.64834E-05  7055   0.122E-02    0.215E-02
RMM:   5    -0.115978438118E+04   -0.70312E-06   -0.23122E-05  6906   0.834E-03    0.694E-03
RMM:   6    -0.115978438260E+04   -0.14198E-05   -0.10592E-05  6648   0.590E-03    0.390E-03
RMM:   7    -0.115978438340E+04   -0.79507E-06   -0.63382E-06  6419   0.417E-03    0.306E-03
RMM:   8    -0.115978438391E+04   -0.51476E-06   -0.38853E-06  5808   0.361E-03
  30 F= -.11597844E+04 E0= -.11597844E+04  d E =-.409814E-03  mag=    -0.0000
