       N       E                     dE             d eps       ncg     rms          rms(c)
DAV:   1    -0.116120380391E+04   -0.11612E+04   -0.29755E-05  7896   0.126E-02    0.118E-02
RMM:   2    -0.116120382447E+04   -0.20561E-04   -0.26686E-05  6649   0.844E-03    0.159E-02
RMM:   3    -0.116120382997E+04   -0.54962E-05   -0.12963E-05  5958   0.399E-03    0.124E-02
RMM:   4    -0.116120382935E+04    0.61865E-06   -0.54365E-06  5482   0.424E-03    0.127E-02
RMM:   5    -0.116120383113E+04   -0.17821E-05   -0.35192E-06  3674   0.249E-03    0.127E-02
RMM:   6    -0.116120383117E+04   -0.32800E-07   -0.16193E-06  3170   0.263E-03    0.126E-02
RMM:   7    -0.116120383485E+04   -0.36841E-05   -0.15429E-06  2907   0.221E-03    0.147E-02
RMM:   8    -0.116120382599E+04    0.88561E-05   -0.18032E-06  3196   0.269E-03
   1 F= -.11612038E+04 E0= -.11612038E+04  d E =-.116120E+04  mag=     8.0000
       N       E                     dE             d eps       ncg     rms          rms(c)
DAV:   1    -0.116120428819E+04   -0.45334E-03   -0.94817E-01 12768   0.110E+00    0.441E-01
RMM:   2    -0.116120738784E+04   -0.30996E-02   -0.25504E-02 12448   0.209E-01    0.301E-01
RMM:   3    -0.116120755894E+04   -0.17110E-03   -0.16034E-03 12370   0.744E-02    0.167E-01
RMM:   4    -0.116120740648E+04    0.15246E-03   -0.63945E-04 10796   0.303E-02    0.795E-02
RMM:   5    -0.116120739943E+04    0.70450E-05   -0.12596E-04  7908   0.182E-02    0.315E-02
RMM:   6    -0.116120740985E+04   -0.10411E-04   -0.39071E-05  7160   0.865E-03    0.191E-02
RMM:   7    -0.116120742104E+04   -0.11195E-04   -0.20166E-05  6922   0.666E-03    0.153E-02
RMM:   8    -0.116120743385E+04   -0.12814E-04   -0.15255E-05  6714   0.521E-03
   2 F= -.11612074E+04 E0= -.11612074E+04  d E =-.360786E-02  mag=     8.0000
       N       E                     dE             d eps       ncg     rms          rms(c)
DAV:   1    -0.116120862985E+04   -0.12088E-02   -0.26606E-01 12752   0.585E-01    0.184E-01
RMM:   2    -0.116120923029E+04   -0.60044E-03   -0.80110E-03 12295   0.117E-01    0.166E-01
RMM:   3    -0.116120920880E+04    0.21490E-04   -0.47008E-04 10078   0.408E-02    0.106E-01
RMM:   4    -0.116120916101E+04    0.47797E-04   -0.22314E-04  8332   0.179E-02    0.532E-02
RMM:   5    -0.116120916176E+04   -0.75799E-06   -0.59937E-05  7178   0.113E-02    0.178E-02
RMM:   6    -0.116120916848E+04   -0.67165E-05   -0.18826E-05  6809   0.633E-03    0.150E-02
RMM:   7    -0.116120917523E+04   -0.67505E-05   -0.10443E-05  6138   0.431E-03    0.121E-02
RMM:   8    -0.116120918824E+04   -0.13009E-04   -0.12129E-05  6102   0.438E-03
   3 F= -.11612092E+04 E0= -.11612092E+04  d E =-.175439E-02  mag=     8.0000
       N       E                     dE             d eps       ncg     rms          rms(c)
DAV:   1    -0.116120975140E+04   -0.57617E-03   -0.41470E-01 12712   0.737E-01    0.198E-01
RMM:   2    -0.116121088725E+04   -0.11358E-02   -0.10393E-02 12956   0.131E-01    0.128E-01
RMM:   3    -0.116121091727E+04   -0.30016E-04   -0.48505E-04  9571   0.415E-02    0.740E-02
RMM:   4    -0.116121089587E+04    0.21395E-04   -0.12557E-04  7298   0.159E-02    0.366E-02
RMM:   5    -0.116121090569E+04   -0.98166E-05   -0.56889E-05  7049   0.105E-02    0.138E-02
RMM:   6    -0.116121091209E+04   -0.64043E-05   -0.18039E-05  6839   0.692E-03    0.108E-02
RMM:   7    -0.116121091812E+04   -0.60245E-05   -0.11588E-05  6327   0.465E-03    0.953E-03
RMM:   8    -0.116121092806E+04   -0.99432E-05   -0.12475E-05  6245   0.458E-03
   4 F= -.11612109E+04 E0= -.11612109E+04  d E =-.173982E-02  mag=     8.0000
       N       E                     dE             d eps       ncg     rms          rms(c)
DAV:   1    -0.116121121248E+04   -0.29436E-03   -0.55547E-01 12760   0.849E-01    0.214E-01
RMM:   2    -0.116121271514E+04   -0.15027E-02   -0.13579E-02 13078   0.147E-01    0.127E-01
RMM:   3    -0.116121274935E+04   -0.34214E-04   -0.62805E-04 10031   0.459E-02    0.723E-02
RMM:   4    -0.116121272407E+04    0.25280E-04   -0.13607E-04  7324   0.169E-02    0.352E-02
RMM:   5    -0.116121273289E+04   -0.88144E-05   -0.64523E-05  7081   0.111E-02    0.131E-02
RMM:   6    -0.116121273913E+04   -0.62404E-05   -0.21351E-05  6881   0.745E-03    0.102E-02
RMM:   7    -0.116121274440E+04   -0.52662E-05   -0.13853E-05  6558   0.494E-03    0.914E-03
RMM:   8    -0.116121275187E+04   -0.74773E-05   -0.11477E-05  6088   0.475E-03
   5 F= -.11612128E+04 E0= -.11612128E+04  d E =-.182381E-02  mag=     8.0000
       N       E                     dE             d eps       ncg     rms          rms(c)
DAV:   1    -0.116121314448E+04   -0.40008E-03   -0.44902E-01 12640   0.763E-01    0.161E-01
RMM:   2    -0.116121424568E+04   -0.11012E-02   -0.10899E-02 12973   0.130E-01    0.994E-02
RMM:   3    -0.116121424614E+04   -0.45644E-06   -0.48252E-04  9214   0.413E-02    0.609E-02
RMM:   4    -0.116121422773E+04    0.18410E-04   -0.11193E-04  7224   0.151E-02    0.306E-02
RMM:   5    -0.116121423609E+04   -0.83639E-05   -0.50333E-05  7027   0.100E-02    0.123E-02
RMM:   6    -0.116121424144E+04   -0.53458E-05   -0.18454E-05  6826   0.675E-03    0.916E-03
RMM:   7    -0.116121424603E+04   -0.45938E-05   -0.11622E-05  6360   0.481E-03    0.822E-03
RMM:   8    -0.116121425262E+04   -0.65927E-05   -0.10297E-05  5783   0.437E-03
   6 F= -.11612143E+04 E0= -.11612143E+04  d E =-.150075E-02  mag=     8.0000
       N       E                     dE             d eps       ncg     rms          rms(c)
DAV:   1    -0.116121456080E+04   -0.31477E-03   -0.47251E-01 12656   0.780E-01    0.145E-01
RMM:   2    -0.116121566299E+04   -0.11022E-02   -0.11381E-02 12924   0.132E-01    0.908E-02
RMM:   3    -0.116121565162E+04    0.11367E-04   -0.50797E-04  9368   0.422E-02    0.579E-02
RMM:   4    -0.116121563250E+04    0.19118E-04   -0.11869E-04  7225   0.153E-02    0.283E-02
RMM:   5    -0.116121564164E+04   -0.91311E-05   -0.47277E-05  7022   0.984E-03    0.104E-02
RMM:   6    -0.116121564688E+04   -0.52482E-05   -0.18401E-05  6816   0.655E-03    0.865E-03
RMM:   7    -0.116121565136E+04   -0.44726E-05   -0.11502E-05  6239   0.476E-03    0.742E-03
RMM:   8    -0.116121565812E+04   -0.67615E-05   -0.10875E-05  5707   0.439E-03
   7 F= -.11612157E+04 E0= -.11612157E+04  d E =-.140550E-02  mag=     8.0000
       N       E                     dE             d eps       ncg     rms          rms(c)
DAV:   1    -0.116121528892E+04    0.36244E-03   -0.93950E-01 12656   0.110E+00    0.198E-01
RMM:   2    -0.116121745903E+04   -0.21701E-02   -0.22567E-02 12973   0.185E-01    0.125E-01
RMM:   3    -0.116121743574E+04    0.23291E-04   -0.10450E-03 11206   0.593E-02    0.799E-02
RMM:   4    -0.116121739261E+04    0.43130E-04   -0.23450E-04  7955   0.204E-02    0.385E-02
RMM:   5    -0.116121740309E+04   -0.10484E-04   -0.76090E-05  7145   0.127E-02    0.128E-02
RMM:   6    -0.116121740980E+04   -0.67099E-05   -0.27901E-05  6933   0.827E-03    0.107E-02
RMM:   7    -0.116121741478E+04   -0.49754E-05   -0.17387E-05  6715   0.572E-03    0.894E-03
RMM:   8    -0.116121742114E+04   -0.63653E-05   -0.13182E-05  6370   0.530E-03
   8 F= -.11612174E+04 E0= -.11612174E+04  d E =-.176302E-02  mag=     8.0000
       N       E                     dE             d eps       ncg     rms          rms(c)
DAV:   1    -0.116121720803E+04    0.20675E-03   -0.73751E-01 12568   0.972E-01    0.173E-01
RMM:   2    -0.116121890935E+04   -0.17013E-02   -0.17732E-02 12995   0.164E-01    0.110E-01
RMM:   3    -0.116121888648E+04    0.22868E-04   -0.79997E-04 10489   0.514E-02    0.706E-02
RMM:   4    -0.116121885346E+04    0.33027E-04   -0.18081E-04  7563   0.183E-02    0.336E-02
RMM:   5    -0.116121886425E+04   -0.10794E-04   -0.62813E-05  7101   0.115E-02    0.125E-02
RMM:   6    -0.116121887011E+04   -0.58583E-05   -0.23932E-05  6896   0.756E-03    0.100E-02
RMM:   7    -0.116121887500E+04   -0.48912E-05   -0.15244E-05  6617   0.533E-03    0.872E-03
RMM:   8    -0.116121888109E+04   -0.60953E-05   -0.11747E-05  6203   0.495E-03
   9 F= -.11612189E+04 E0= -.11612189E+04  d E =-.145995E-02  mag=     8.0000
       N       E                     dE             d eps       ncg     rms          rms(c)
DAV:   1    -0.116121785881E+04    0.10162E-02   -0.11251E+00 12640   0.120E+00    0.214E-01
RMM:   2    -0.116122046013E+04   -0.26013E-02   -0.26993E-02 12999   0.202E-01    0.136E-01
RMM:   3    -0.116122042881E+04    0.31324E-04   -0.12404E-03 11648   0.637E-02    0.867E-02
RMM:   4    -0.116122037808E+04    0.50727E-04   -0.28306E-04  8467   0.218E-02    0.416E-02
RMM:   5    -0.116122038939E+04   -0.11305E-04   -0.84265E-05  7199   0.134E-02    0.137E-02
RMM:   6    -0.116122039708E+04   -0.76912E-05   -0.30928E-05  6978   0.868E-03    0.112E-02
RMM:   7    -0.116122040275E+04   -0.56714E-05   -0.19265E-05  6732   0.607E-03    0.958E-03
RMM:   8    -0.116122041089E+04   -0.81385E-05   -0.15950E-05  6547   0.577E-03
  10 F= -.11612204E+04 E0= -.11612204E+04  d E =-.152979E-02  mag=     8.0000
       N       E                     dE             d eps       ncg     rms          rms(c)
DAV:   1    -0.116122029956E+04    0.10319E-03   -0.48749E-01 12680   0.788E-01    0.140E-01
RMM:   2    -0.116122143395E+04   -0.11344E-02   -0.11738E-02 12969   0.133E-01    0.885E-02
RMM:   3    -0.116122141687E+04    0.17081E-04   -0.50656E-04  9278   0.411E-02    0.571E-02
RMM:   4    -0.116122139778E+04    0.19085E-04   -0.12226E-04  7263   0.153E-02    0.274E-02
RMM:   5    -0.116122140756E+04   -0.97786E-05   -0.46580E-05  7019   0.975E-03    0.107E-02
RMM:   6    -0.116122141291E+04   -0.53462E-05   -0.18713E-05  6817   0.650E-03    0.883E-03
RMM:   7    -0.116122141743E+04   -0.45176E-05   -0.11663E-05  6172   0.481E-03    0.763E-03
RMM:   8    -0.116122142378E+04   -0.63547E-05   -0.10609E-05  5675   0.433E-03
  11 F= -.11612214E+04 E0= -.11612214E+04  d E =-.101289E-02  mag=     8.0000
