       N       E                     dE             d eps       ncg     rms          rms(c)
DAV:   1    -0.115927838913E+04   -0.11593E+04   -0.73599E-06  3736   0.578E-03    0.886E-03
RMM:   2    -0.115927838937E+04   -0.23533E-06   -0.37601E-06  2593   0.345E-03    0.127E-02
RMM:   3    -0.115927838950E+04   -0.13274E-06   -0.17257E-06  1588   0.223E-03    0.238E-03
RMM:   4    -0.115927838956E+04   -0.59721E-07   -0.90998E-07  1288   0.222E-03    0.191E-03
RMM:   5    -0.115927838960E+04   -0.35405E-07   -0.33906E-07   954   0.189E-03    0.106E-03
RMM:   6    -0.115927838961E+04   -0.12995E-07   -0.12401E-07   704   0.185E-03    0.879E-04
RMM:   7    -0.115927838961E+04   -0.51368E-08   -0.33244E-08   591   0.179E-03    0.645E-04
RMM:   8    -0.115927838962E+04   -0.43219E-08   -0.22412E-08   516   0.179E-03
   1 F= -.11592784E+04 E0= -.11592784E+04  d E =-.115928E+04  mag=     8.0000
       N       E                     dE             d eps       ncg     rms          rms(c)
DAV:   1    -0.115927878597E+04   -0.39635E-03   -0.92985E-02  6208   0.343E-01    0.691E-02
RMM:   2    -0.115927897722E+04   -0.19125E-03   -0.23366E-03  6068   0.593E-02    0.523E-02
RMM:   3    -0.115927896858E+04    0.86391E-05   -0.10066E-04  3522   0.211E-02    0.356E-02
RMM:   4    -0.115927896014E+04    0.84414E-05   -0.45208E-05  3418   0.835E-03    0.208E-02
RMM:   5    -0.115927895993E+04    0.20754E-06   -0.11222E-05  3125   0.523E-03    0.135E-02
RMM:   6    -0.115927896046E+04   -0.52922E-06   -0.44591E-06  2626   0.312E-03    0.545E-03
RMM:   7    -0.115927896065E+04   -0.18824E-06   -0.17303E-06  1864   0.267E-03    0.355E-03
RMM:   8    -0.115927896074E+04   -0.97250E-07   -0.70356E-07  1343   0.205E-03
   2 F= -.11592790E+04 E0= -.11592790E+04  d E =-.571126E-03  mag=     8.0000
       N       E                     dE             d eps       ncg     rms          rms(c)
DAV:   1    -0.115927924048E+04   -0.27984E-03   -0.16194E-02  6096   0.143E-01    0.378E-02
RMM:   2    -0.115927926518E+04   -0.24702E-04   -0.43526E-04  4828   0.263E-02    0.316E-02
RMM:   3    -0.115927926273E+04    0.24499E-05   -0.27440E-05  3163   0.101E-02    0.189E-02
RMM:   4    -0.115927925956E+04    0.31717E-05   -0.14972E-05  3029   0.483E-03    0.113E-02
RMM:   5    -0.115927925883E+04    0.72860E-06   -0.39533E-06  2464   0.326E-03    0.387E-03
RMM:   6    -0.115927925894E+04   -0.10342E-06   -0.10968E-06  1400   0.211E-03    0.280E-03
RMM:   7    -0.115927925898E+04   -0.43758E-07   -0.44108E-07  1128   0.204E-03    0.160E-03
RMM:   8    -0.115927925900E+04   -0.20867E-07   -0.16898E-07   856   0.184E-03
   3 F= -.11592793E+04 E0= -.11592793E+04  d E =-.298258E-03  mag=     8.0000
       N       E                     dE             d eps       ncg     rms          rms(c)
DAV:   1    -0.115927954685E+04   -0.28787E-03   -0.32396E-02  6112   0.201E-01    0.383E-02
RMM:   2    -0.115927961629E+04   -0.69438E-04   -0.77473E-04  5205   0.340E-02    0.267E-02
RMM:   3    -0.115927961603E+04    0.25930E-06   -0.37877E-05  3197   0.128E-02    0.181E-02
RMM:   4    -0.115927961474E+04    0.12893E-05   -0.13481E-05  3076   0.484E-03    0.113E-02
RMM:   5    -0.115927961473E+04    0.10463E-07   -0.35498E-06  2460   0.335E-03    0.597E-03
RMM:   6    -0.115927961490E+04   -0.17152E-06   -0.13668E-06  1466   0.220E-03    0.206E-03
RMM:   7    -0.115927961495E+04   -0.53900E-07   -0.44392E-07  1089   0.214E-03    0.118E-03
RMM:   8    -0.115927961497E+04   -0.14086E-07   -0.66826E-08   674   0.186E-03
   4 F= -.11592796E+04 E0= -.11592796E+04  d E =-.355964E-03  mag=     8.0000
       N       E                     dE             d eps       ncg     rms          rms(c)
DAV:   1    -0.115927984100E+04   -0.22605E-03   -0.17100E-02  6080   0.147E-01    0.284E-02
RMM:   2    -0.115927987530E+04   -0.34302E-04   -0.39821E-04  4357   0.249E-02    0.202E-02
RMM:   3    -0.115927987607E+04   -0.76536E-06   -0.26195E-05  3155   0.102E-02    0.124E-02
RMM:   4    -0.115927987544E+04    0.62613E-06   -0.82493E-06  2883   0.401E-03    0.973E-03
RMM:   5    -0.115927987510E+04    0.34393E-06   -0.27708E-06  2307   0.296E-03    0.381E-03
RMM:   6    -0.115927987518E+04   -0.84852E-07   -0.95790E-07  1316   0.209E-03    0.132E-03
RMM:   7    -0.115927987522E+04   -0.39494E-07   -0.34967E-07  1055   0.200E-03    0.826E-04
RMM:   8    -0.115927987523E+04   -0.21537E-08   -0.48805E-08   642   0.182E-03
   5 F= -.11592799E+04 E0= -.11592799E+04  d E =-.260259E-03  mag=     8.0000
       N       E                     dE             d eps       ncg     rms          rms(c)
DAV:   1    -0.115928008130E+04   -0.20608E-03   -0.14547E-02  6048   0.135E-01    0.254E-02
RMM:   2    -0.115928011160E+04   -0.30294E-04   -0.32445E-04  4001   0.226E-02    0.166E-02
RMM:   3    -0.115928011333E+04   -0.17313E-05   -0.23597E-05  3102   0.979E-03    0.103E-02
RMM:   4    -0.115928011322E+04    0.10863E-06   -0.69495E-06  2713   0.375E-03    0.782E-03
RMM:   5    -0.115928011310E+04    0.12211E-06   -0.22666E-06  2044   0.284E-03    0.360E-03
RMM:   6    -0.115928011318E+04   -0.84940E-07   -0.67375E-07  1063   0.195E-03    0.999E-04
RMM:   7    -0.115928011321E+04   -0.30414E-07   -0.26074E-07   838   0.195E-03    0.605E-04
RMM:   8    -0.115928011322E+04   -0.75815E-08   -0.30567E-08   586   0.178E-03
   6 F= -.11592801E+04 E0= -.11592801E+04  d E =-.237994E-03  mag=     8.0000
       N       E                     dE             d eps       ncg     rms          rms(c)
DAV:   1    -0.115928041910E+04   -0.30589E-03   -0.42227E-02  6112   0.229E-01    0.422E-02
RMM:   2    -0.115928051255E+04   -0.93450E-04   -0.98946E-04  5487   0.382E-02    0.265E-02
RMM:   3    -0.115928051279E+04   -0.24152E-06   -0.46491E-05  3253   0.146E-02    0.175E-02
RMM:   4    -0.115928051171E+04    0.10837E-05   -0.15543E-05  3083   0.508E-03    0.118E-02
RMM:   5    -0.115928051177E+04   -0.58804E-07   -0.37921E-06  2379   0.340E-03    0.639E-03
RMM:   6    -0.115928051198E+04   -0.21770E-06   -0.18839E-06  1724   0.233E-03    0.212E-03
RMM:   7    -0.115928051206E+04   -0.72585E-07   -0.60746E-07  1190   0.219E-03    0.129E-03
RMM:   8    -0.115928051207E+04   -0.17331E-07   -0.11383E-07   713   0.187E-03
   7 F= -.11592805E+04 E0= -.11592805E+04  d E =-.398855E-03  mag=     8.0000
       N       E                     dE             d eps       ncg     rms          rms(c)
DAV:   1    -0.115928086906E+04   -0.35700E-03   -0.73639E-02  6128   0.303E-01    0.557E-02
RMM:   2    -0.115928103176E+04   -0.16270E-03   -0.17308E-03  5958   0.501E-02    0.348E-02
RMM:   3    -0.115928103083E+04    0.93025E-06   -0.77474E-05  3456   0.187E-02    0.231E-02
RMM:   4    -0.115928102837E+04    0.24674E-05   -0.25102E-05  3278   0.630E-03    0.140E-02
RMM:   5    -0.115928102853E+04   -0.16182E-06   -0.69773E-06  2855   0.409E-03    0.685E-03
RMM:   6    -0.115928102891E+04   -0.38618E-06   -0.30509E-06  2156   0.277E-03    0.309E-03
RMM:   7    -0.115928102906E+04   -0.14590E-06   -0.11401E-06  1496   0.238E-03    0.169E-03
RMM:   8    -0.115928102912E+04   -0.61293E-07   -0.38742E-07  1010   0.202E-03
   8 F= -.11592810E+04 E0= -.11592810E+04  d E =-.517047E-03  mag=     8.0000
       N       E                     dE             d eps       ncg     rms          rms(c)
DAV:   1    -0.115928141844E+04   -0.38938E-03   -0.10147E-01  6160   0.355E-01    0.660E-02
RMM:   2    -0.115928164467E+04   -0.22623E-03   -0.23755E-03  6066   0.587E-02    0.409E-02
RMM:   3    -0.115928164389E+04    0.78384E-06   -0.10672E-04  3558   0.216E-02    0.271E-02
RMM:   4    -0.115928164053E+04    0.33571E-05   -0.32594E-05  3343   0.730E-03    0.186E-02
RMM:   5    -0.115928164061E+04   -0.74739E-07   -0.94472E-06  3026   0.476E-03    0.978E-03
RMM:   6    -0.115928164120E+04   -0.59430E-06   -0.47893E-06  2428   0.319E-03    0.426E-03
RMM:   7    -0.115928164144E+04   -0.23936E-06   -0.21441E-06  1912   0.279E-03    0.311E-03
RMM:   8    -0.115928164155E+04   -0.10571E-06   -0.90202E-07  1240   0.212E-03
   9 F= -.11592816E+04 E0= -.11592816E+04  d E =-.612426E-03  mag=     8.0000
       N       E                     dE             d eps       ncg     rms          rms(c)
DAV:   1    -0.115928200349E+04   -0.36205E-03   -0.11125E-01  6120   0.371E-01    0.704E-02
RMM:   2    -0.115928225516E+04   -0.25166E-03   -0.26176E-03  6126   0.619E-02    0.437E-02
RMM:   3    -0.115928225465E+04    0.50456E-06   -0.11651E-04  3610   0.222E-02    0.288E-02
RMM:   4    -0.115928225069E+04    0.39665E-05   -0.34442E-05  3379   0.765E-03    0.183E-02
RMM:   5    -0.115928225066E+04    0.26994E-07   -0.10785E-05  3077   0.497E-03    0.108E-02
RMM:   6    -0.115928225127E+04   -0.61149E-06   -0.52469E-06  2579   0.340E-03    0.432E-03
RMM:   7    -0.115928225154E+04   -0.26831E-06   -0.23282E-06  2011   0.279E-03    0.309E-03
RMM:   8    -0.115928225167E+04   -0.13110E-06   -0.11073E-06  1388   0.221E-03
  10 F= -.11592823E+04 E0= -.11592823E+04  d E =-.610123E-03  mag=     8.0000
       N       E                     dE             d eps       ncg     rms          rms(c)
DAV:   1    -0.115928261020E+04   -0.35866E-03   -0.98524E-02  6072   0.349E-01    0.663E-02
RMM:   2    -0.115928283215E+04   -0.22195E-03   -0.23015E-03  6072   0.581E-02    0.405E-02
RMM:   3    -0.115928283205E+04    0.97178E-07   -0.10353E-04  3574   0.211E-02    0.265E-02
RMM:   4    -0.115928282882E+04    0.32281E-05   -0.31582E-05  3359   0.725E-03    0.168E-02
RMM:   5    -0.115928282894E+04   -0.11614E-06   -0.95209E-06  2997   0.471E-03    0.116E-02
RMM:   6    -0.115928282947E+04   -0.52774E-06   -0.48533E-06  2457   0.328E-03    0.404E-03
RMM:   7    -0.115928282972E+04   -0.25590E-06   -0.21605E-06  1938   0.273E-03    0.302E-03
RMM:   8    -0.115928282984E+04   -0.11930E-06   -0.10225E-06  1344   0.219E-03
  11 F= -.11592828E+04 E0= -.11592828E+04  d E =-.578172E-03  mag=     8.0000
