       N       E                     dE             d eps       ncg     rms          rms(c)
DAV:   1    -0.115983575461E+04   -0.11598E+04   -0.15137E-05  3736   0.941E-03    0.160E-02
RMM:   2    -0.115983575472E+04   -0.11228E-06   -0.96998E-06  3130   0.546E-03    0.249E-02
RMM:   3    -0.115983575518E+04   -0.45345E-06   -0.49716E-06  2543   0.300E-03    0.231E-03
RMM:   4    -0.115983575537E+04   -0.18791E-06   -0.20768E-06  1833   0.281E-03    0.377E-03
RMM:   5    -0.115983575549E+04   -0.12243E-06   -0.13201E-06  1414   0.222E-03    0.272E-03
RMM:   6    -0.115983575556E+04   -0.76034E-07   -0.64388E-07  1070   0.216E-03    0.195E-03
RMM:   7    -0.115983575561E+04   -0.42026E-07   -0.23935E-07   816   0.192E-03    0.211E-03
RMM:   8    -0.115983575564E+04   -0.31359E-07   -0.17183E-07   716   0.193E-03
   1 F= -.11598358E+04 E0= -.11598358E+04  d E =-.115984E+04  mag=    10.0000
       N       E                     dE             d eps       ncg     rms          rms(c)
DAV:   1    -0.115983592453E+04   -0.16893E-03   -0.20740E-01  6240   0.535E-01    0.144E-01
RMM:   2    -0.115983633846E+04   -0.41393E-03   -0.61610E-03  6144   0.102E-01    0.151E-01
RMM:   3    -0.115983630109E+04    0.37372E-04   -0.23541E-04  4141   0.310E-02    0.109E-01
RMM:   4    -0.115983626453E+04    0.36553E-04   -0.12955E-04  3659   0.148E-02    0.604E-02
RMM:   5    -0.115983625601E+04    0.85256E-05   -0.56671E-05  3530   0.106E-02    0.521E-02
RMM:   6    -0.115983625709E+04   -0.10862E-05   -0.17599E-05  3297   0.706E-03    0.129E-02
RMM:   7    -0.115983625762E+04   -0.52660E-06   -0.66707E-06  2806   0.358E-03    0.106E-02
RMM:   8    -0.115983625791E+04   -0.29433E-06   -0.37142E-06  2700   0.345E-03
   2 F= -.11598363E+04 E0= -.11598363E+04  d E =-.502277E-03  mag=    10.0000
       N       E                     dE             d eps       ncg     rms          rms(c)
DAV:   1    -0.115983651078E+04   -0.25316E-03   -0.42495E-02  6144   0.237E-01    0.681E-02
RMM:   2    -0.115983657609E+04   -0.65301E-04   -0.14204E-03  6009   0.477E-02    0.745E-02
RMM:   3    -0.115983656146E+04    0.14622E-04   -0.50453E-05  3381   0.141E-02    0.541E-02
RMM:   4    -0.115983654786E+04    0.13607E-04   -0.47191E-05  3392   0.803E-03    0.280E-02
RMM:   5    -0.115983654353E+04    0.43244E-05   -0.13542E-05  3043   0.526E-03    0.153E-02
RMM:   6    -0.115983654365E+04   -0.12029E-06   -0.35901E-06  2371   0.301E-03    0.760E-03
RMM:   7    -0.115983654366E+04   -0.71595E-08   -0.11656E-06  1531   0.235E-03    0.460E-03
RMM:   8    -0.115983654369E+04   -0.29191E-07   -0.82193E-07  1306   0.207E-03
   3 F= -.11598365E+04 E0= -.11598365E+04  d E =-.285774E-03  mag=    10.0000
