       N       E                     dE             d eps       ncg     rms          rms(c)
DAV:   1    -0.115954977532E+04   -0.11595E+04   -0.16353E-05  8032   0.133E-02    0.244E-02
RMM:   2    -0.115954978509E+04   -0.97684E-05   -0.29126E-05  6467   0.723E-03    0.379E-02
RMM:   3    -0.115954978875E+04   -0.36561E-05   -0.82169E-06  5885   0.373E-03    0.111E-02
RMM:   4    -0.115954979232E+04   -0.35720E-05   -0.38649E-06  4434   0.345E-03    0.124E-02
RMM:   5    -0.115954979371E+04   -0.13873E-05   -0.22571E-06  3191   0.228E-03    0.110E-02
RMM:   6    -0.115954978883E+04    0.48755E-05   -0.14146E-06  3078   0.249E-03    0.117E-02
RMM:   7    -0.115954979897E+04   -0.10136E-04   -0.30381E-06  3540   0.292E-03    0.127E-02
RMM:   8    -0.115954981578E+04   -0.16816E-04   -0.13317E-05  4543   0.376E-03
   1 F= -.11595498E+04 E0= -.11595498E+04  d E =-.115955E+04  mag=    10.0000
       N       E                     dE             d eps       ncg     rms          rms(c)
DAV:   1    -0.115954998793E+04   -0.18897E-03   -0.24865E-01 12752   0.579E-01    0.180E-01
RMM:   2    -0.115955039421E+04   -0.40627E-03   -0.80836E-03 12272   0.117E-01    0.187E-01
RMM:   3    -0.115955032473E+04    0.69475E-04   -0.34964E-04  9742   0.356E-02    0.126E-01
RMM:   4    -0.115955025496E+04    0.69771E-04   -0.28821E-04  9725   0.188E-02    0.617E-02
RMM:   5    -0.115955024479E+04    0.10165E-04   -0.65571E-05  7432   0.122E-02    0.354E-02
RMM:   6    -0.115955025093E+04   -0.61348E-05   -0.19729E-05  6886   0.594E-03    0.189E-02
RMM:   7    -0.115955025757E+04   -0.66453E-05   -0.10009E-05  6234   0.462E-03    0.154E-02
RMM:   8    -0.115955026798E+04   -0.10403E-04   -0.94932E-06  6107   0.371E-03
   2 F= -.11595503E+04 E0= -.11595503E+04  d E =-.452194E-03  mag=    10.0000
       N       E                     dE             d eps       ncg     rms          rms(c)
DAV:   1    -0.115955083806E+04   -0.58048E-03   -0.58678E-02 12320   0.279E-01    0.896E-02
RMM:   2    -0.115955088099E+04   -0.42931E-04   -0.21197E-03 12064   0.602E-02    0.100E-01
RMM:   3    -0.115955085481E+04    0.26180E-04   -0.84277E-05  7306   0.181E-02    0.691E-02
RMM:   4    -0.115955083363E+04    0.21177E-04   -0.84713E-05  7219   0.109E-02    0.384E-02
RMM:   5    -0.115955083561E+04   -0.19735E-05   -0.34260E-05  6696   0.750E-03    0.339E-02
RMM:   6    -0.115955084089E+04   -0.52829E-05   -0.11584E-05  5970   0.525E-03    0.155E-02
RMM:   7    -0.115955084650E+04   -0.56118E-05   -0.63625E-06  5010   0.326E-03    0.144E-02
RMM:   8    -0.115955085340E+04   -0.69014E-05   -0.55985E-06  4681   0.308E-03
   3 F= -.11595509E+04 E0= -.11595509E+04  d E =-.585425E-03  mag=    10.0000
