       N       E                     dE             d eps       ncg     rms          rms(c)
DAV:   1    -0.115960698995E+04   -0.11596E+04   -0.23739E-05  7880   0.153E-02    0.293E-02
RMM:   2    -0.115960699741E+04   -0.74578E-05   -0.33227E-05  6558   0.848E-03    0.498E-02
RMM:   3    -0.115960700059E+04   -0.31812E-05   -0.11907E-05  5995   0.420E-03    0.100E-02
RMM:   4    -0.115960700453E+04   -0.39438E-05   -0.60063E-06  5110   0.405E-03    0.130E-02
RMM:   5    -0.115960700680E+04   -0.22660E-05   -0.43270E-06  3575   0.262E-03    0.101E-02
RMM:   6    -0.115960699912E+04    0.76792E-05   -0.34208E-06  3653   0.310E-03    0.116E-02
RMM:   7    -0.115960699048E+04    0.86421E-05   -0.44912E-06  3777   0.290E-03    0.108E-02
RMM:   8    -0.115960700838E+04   -0.17898E-04   -0.89690E-06  4071   0.469E-03
   1 F= -.11596070E+04 E0= -.11596070E+04  d E =-.115961E+04  mag=    10.0000
       N       E                     dE             d eps       ncg     rms          rms(c)
DAV:   1    -0.115960735012E+04   -0.35964E-03   -0.40314E-01 12864   0.741E-01    0.208E-01
RMM:   2    -0.115960799130E+04   -0.64117E-03   -0.12954E-02 12296   0.147E-01    0.213E-01
RMM:   3    -0.115960788814E+04    0.10315E-03   -0.61326E-04 11244   0.450E-02    0.146E-01
RMM:   4    -0.115960778101E+04    0.10713E-03   -0.42118E-04 10437   0.223E-02    0.836E-02
RMM:   5    -0.115960775028E+04    0.30738E-04   -0.91056E-05  8000   0.150E-02    0.276E-02
RMM:   6    -0.115960775691E+04   -0.66308E-05   -0.31984E-05  7083   0.707E-03    0.209E-02
RMM:   7    -0.115960776146E+04   -0.45532E-05   -0.10342E-05  6489   0.540E-03    0.168E-02
RMM:   8    -0.115960776934E+04   -0.78835E-05   -0.96074E-06  6337   0.386E-03
   2 F= -.11596078E+04 E0= -.11596078E+04  d E =-.760965E-03  mag=    10.0000
       N       E                     dE             d eps       ncg     rms          rms(c)
DAV:   1    -0.115960856498E+04   -0.80352E-03   -0.98066E-02 12208   0.359E-01    0.112E-01
RMM:   2    -0.115960868124E+04   -0.11627E-03   -0.34916E-03 12148   0.761E-02    0.131E-01
RMM:   3    -0.115960864408E+04    0.37160E-04   -0.13295E-04  7622   0.229E-02    0.954E-02
RMM:   4    -0.115960861584E+04    0.28245E-04   -0.12330E-04  7351   0.134E-02    0.532E-02
RMM:   5    -0.115960861016E+04    0.56799E-05   -0.43401E-05  6925   0.891E-03    0.253E-02
RMM:   6    -0.115960861425E+04   -0.40876E-05   -0.13117E-05  5923   0.547E-03    0.169E-02
RMM:   7    -0.115960861833E+04   -0.40875E-05   -0.70442E-06  5061   0.370E-03    0.137E-02
RMM:   8    -0.115960862458E+04   -0.62490E-05   -0.61191E-06  4498   0.341E-03
   3 F= -.11596086E+04 E0= -.11596086E+04  d E =-.855240E-03  mag=    10.0000
