       N       E                     dE             d eps       ncg     rms          rms(c)
DAV:   1     0.120129264532E+05    0.12013E+05   -0.42368E+05 12352   0.132E+03
DAV:   2     0.682557951753E+03   -0.11330E+05   -0.10116E+05 12320   0.378E+02
DAV:   3    -0.135509711414E+04   -0.20377E+04   -0.19630E+04 13224   0.167E+02
DAV:   4    -0.149197649961E+04   -0.13688E+03   -0.13445E+03 16144   0.455E+01
DAV:   5    -0.150105267647E+04   -0.90762E+01   -0.90273E+01 22200   0.107E+01    0.183E+02
RMM:   6    -0.116446716200E+04    0.33659E+03   -0.16299E+03 12502   0.356E+01    0.122E+02
RMM:   7    -0.114693534341E+04    0.17532E+02   -0.61969E+01 12793   0.118E+01    0.749E+01
RMM:   8    -0.115015196042E+04   -0.32166E+01   -0.22649E+01 14290   0.539E+00    0.336E+01
RMM:   9    -0.115463343601E+04   -0.44815E+01   -0.81167E+00 13076   0.354E+00    0.128E+01
RMM:  10    -0.115664378062E+04   -0.20103E+01   -0.41045E+00 13329   0.218E+00    0.957E+00
RMM:  11    -0.115762504688E+04   -0.98127E+00   -0.19010E+00 14303   0.137E+00    0.508E+00
RMM:  12    -0.115842098408E+04   -0.79594E+00   -0.74837E-01 14781   0.775E-01    0.256E+00
RMM:  13    -0.115874063939E+04   -0.31966E+00   -0.38776E-01 14712   0.587E-01    0.123E+00
RMM:  14    -0.115879172892E+04   -0.51090E-01   -0.11936E-01 15631   0.320E-01    0.922E-01
RMM:  15    -0.115880150305E+04   -0.97741E-02   -0.32017E-02 17140   0.154E-01    0.512E-01
RMM:  16    -0.115880465423E+04   -0.31512E-02   -0.11648E-02 17282   0.871E-02    0.250E-01
RMM:  17    -0.115880571353E+04   -0.10593E-02   -0.40350E-03 15155   0.529E-02    0.119E-01
RMM:  18    -0.115880629162E+04   -0.57809E-03   -0.19378E-03 13314   0.327E-02    0.820E-02
RMM:  19    -0.115880663939E+04   -0.34777E-03   -0.10381E-03 10850   0.241E-02    0.704E-02
RMM:  20    -0.115880721238E+04   -0.57299E-03   -0.95477E-04 11086   0.261E-02    0.641E-02
RMM:  21    -0.115880765651E+04   -0.44413E-03   -0.67661E-04 10114   0.214E-02    0.629E-02
RMM:  22    -0.115880794179E+04   -0.28528E-03   -0.39583E-04  9553   0.157E-02    0.618E-02
RMM:  23    -0.115880837133E+04   -0.42953E-03   -0.43723E-04  9404   0.193E-02    0.617E-02
RMM:  24    -0.115880940635E+04   -0.10350E-02   -0.19825E-03 10318   0.408E-02    0.589E-02
RMM:  25    -0.115881016626E+04   -0.75992E-03   -0.15893E-03 10041   0.359E-02    0.577E-02
RMM:  26    -0.115881084518E+04   -0.67891E-03   -0.11911E-03  9753   0.306E-02    0.575E-02
RMM:  27    -0.115881181882E+04   -0.97364E-03   -0.18360E-03 10002   0.408E-02    0.578E-02
RMM:  28    -0.115881217854E+04   -0.35972E-03   -0.58455E-04  8981   0.200E-02    0.600E-02
RMM:  29    -0.115881107898E+04    0.10996E-02   -0.11516E-03  9706   0.416E-02    0.648E-02
RMM:  30    -0.115880467598E+04    0.64030E-02   -0.29100E-02 11542   0.188E-01    0.131E-01
RMM:  31    -0.115880634161E+04   -0.16656E-02   -0.18199E-03  9687   0.380E-02    0.109E-01
RMM:  32    -0.115880792332E+04   -0.15817E-02   -0.17907E-03 10164   0.497E-02    0.768E-02
RMM:  33    -0.115880968169E+04   -0.17584E-02   -0.51684E-03 10521   0.801E-02    0.589E-02
RMM:  34    -0.115881168081E+04   -0.19991E-02   -0.80055E-03 10625   0.930E-02    0.562E-02
RMM:  35    -0.115881290726E+04   -0.12264E-02   -0.35825E-03 10561   0.522E-02    0.622E-02
RMM:  36    -0.115881307587E+04   -0.16861E-03   -0.35552E-04  8562   0.166E-02    0.657E-02
RMM:  37    -0.115881303631E+04    0.39559E-04   -0.36341E-05  6962   0.102E-02
   1 F= -.11588130E+04 E0= -.11588130E+04  d E =-.115881E+04  mag=     7.9996
       N       E                     dE             d eps       ncg     rms          rms(c)
DAV:   1    -0.114628674065E+04    0.12526E+02   -0.11297E+03 12432   0.309E+01    0.286E+01
RMM:   2    -0.115631506686E+04   -0.10028E+02   -0.11355E+02 12374   0.939E+00    0.153E+01
RMM:   3    -0.115536690346E+04    0.94816E+00   -0.55647E+00 12456   0.336E+00    0.837E+00
RMM:   4    -0.115540508433E+04   -0.38181E-01   -0.16337E+00 14314   0.101E+00    0.437E+00
RMM:   5    -0.115535748451E+04    0.47600E-01   -0.27264E-01 14840   0.424E-01    0.169E+00
RMM:   6    -0.115535822359E+04   -0.73908E-03   -0.36345E-02 17388   0.183E-01    0.937E-01
RMM:   7    -0.115536227034E+04   -0.40468E-02   -0.27556E-02 17686   0.113E-01    0.657E-01
RMM:   8    -0.115536125827E+04    0.10121E-02   -0.11722E-02 16948   0.746E-02    0.245E-01
RMM:   9    -0.115536130488E+04   -0.46607E-04   -0.36151E-03 15459   0.415E-02    0.133E-01
RMM:  10    -0.115536150313E+04   -0.19825E-03   -0.15360E-03 13303   0.269E-02    0.682E-02
RMM:  11    -0.115536170778E+04   -0.20465E-03   -0.81512E-04 11110   0.201E-02    0.534E-02
RMM:  12    -0.115536193275E+04   -0.22497E-03   -0.54100E-04 10124   0.174E-02    0.482E-02
RMM:  13    -0.115536215783E+04   -0.22508E-03   -0.38547E-04  9524   0.159E-02    0.467E-02
RMM:  14    -0.115536235405E+04   -0.19622E-03   -0.28068E-04  9006   0.137E-02    0.449E-02
RMM:  15    -0.115536258109E+04   -0.22704E-03   -0.25480E-04  8662   0.141E-02    0.448E-02
RMM:  16    -0.115536281242E+04   -0.23133E-03   -0.24011E-04  8428   0.134E-02    0.439E-02
RMM:  17    -0.115536325712E+04   -0.44470E-03   -0.60637E-04  8799   0.229E-02    0.437E-02
RMM:  18    -0.115536391486E+04   -0.65774E-03   -0.14271E-03  9764   0.363E-02    0.417E-02
RMM:  19    -0.115536489075E+04   -0.97589E-03   -0.35588E-03 10372   0.606E-02    0.416E-02
RMM:  20    -0.115536540490E+04   -0.51414E-03   -0.13586E-03  9401   0.309E-02    0.416E-02
RMM:  21    -0.115536476821E+04    0.63669E-03   -0.74268E-04  8946   0.363E-02    0.450E-02
RMM:  22    -0.115536384505E+04    0.92316E-03   -0.18237E-03  9646   0.459E-02    0.552E-02
RMM:  23    -0.115536545423E+04   -0.16092E-02   -0.61799E-03 10517   0.930E-02    0.512E-02
RMM:  24    -0.115536687077E+04   -0.14165E-02   -0.10744E-02 10962   0.111E-01    0.560E-02
RMM:  25    -0.115536769300E+04   -0.82223E-03   -0.17240E-03  9623   0.358E-02    0.415E-02
RMM:  26    -0.115536846632E+04   -0.77332E-03   -0.10014E-02 10805   0.105E-01    0.831E-02
RMM:  27    -0.115536906687E+04   -0.60055E-03   -0.14966E-03  9507   0.327E-02    0.822E-02
RMM:  28    -0.115536844968E+04    0.61719E-03   -0.27029E-03  9951   0.641E-02    0.564E-02
RMM:  29    -0.115536854489E+04   -0.95210E-04   -0.17863E-04  7124   0.127E-02
   2 F= -.11553685E+04 E0= -.11553685E+04  d E =0.344449E+01  mag=     8.0000
       N       E                     dE             d eps       ncg     rms          rms(c)
DAV:   1    -0.115719222471E+04   -0.18238E+01   -0.46496E+02 12464   0.190E+01    0.183E+01
RMM:   2    -0.115855252754E+04   -0.13603E+01   -0.19871E+01 12341   0.494E+00    0.154E+01
RMM:   3    -0.115860150603E+04   -0.48978E-01   -0.15025E+00 13644   0.160E+00    0.799E+00
RMM:   4    -0.115871599180E+04   -0.11449E+00   -0.12327E+00 13127   0.942E-01    0.424E+00
RMM:   5    -0.115849654459E+04    0.21945E+00   -0.34366E-01 13143   0.485E-01    0.121E+00
RMM:   6    -0.115848859195E+04    0.79526E-02   -0.28731E-02 14659   0.165E-01    0.740E-01
RMM:   7    -0.115848969797E+04   -0.11060E-02   -0.97389E-03 14981   0.841E-02    0.259E-01
RMM:   8    -0.115848912382E+04    0.57416E-03   -0.30264E-03 14505   0.458E-02    0.111E-01
RMM:   9    -0.115848920617E+04   -0.82350E-04   -0.91836E-04 12123   0.248E-02
   3 F= -.11584892E+04 E0= -.11584892E+04  d E =-.312066E+01  mag=     8.0000
       N       E                     dE             d eps       ncg     rms          rms(c)
DAV:   1    -0.115931976846E+04   -0.83064E+00   -0.12627E+02 12832   0.112E+01    0.533E+00
RMM:   2    -0.115965428589E+04   -0.33452E+00   -0.44330E+00 12435   0.220E+00    0.419E+00
RMM:   3    -0.115962025647E+04    0.34029E-01   -0.22075E-01 13291   0.620E-01    0.256E+00
RMM:   4    -0.115960620277E+04    0.14054E-01   -0.14099E-01 13037   0.348E-01    0.107E+00
RMM:   5    -0.115959245438E+04    0.13748E-01   -0.30345E-02 12903   0.176E-01    0.377E-01
RMM:   6    -0.115959209458E+04    0.35979E-03   -0.31605E-03 14474   0.565E-02    0.244E-01
RMM:   7    -0.115959216868E+04   -0.74100E-04   -0.12125E-03 13537   0.309E-02    0.121E-01
RMM:   8    -0.115959224017E+04   -0.71482E-04   -0.53764E-04 11233   0.235E-02
   4 F= -.11595922E+04 E0= -.11595922E+04  d E =-.110303E+01  mag=     8.0000
       N       E                     dE             d eps       ncg     rms          rms(c)
DAV:   1    -0.116000993809E+04   -0.41777E+00   -0.38542E+01 13056   0.636E+00    0.277E+00
RMM:   2    -0.116010047249E+04   -0.90534E-01   -0.14135E+00 12421   0.130E+00    0.330E+00
RMM:   3    -0.116008297292E+04    0.17500E-01   -0.69068E-02 14022   0.364E-01    0.269E+00
RMM:   4    -0.116007597592E+04    0.69970E-02   -0.48572E-02 12731   0.213E-01    0.140E+00
RMM:   5    -0.116006453430E+04    0.11442E-01   -0.22881E-02 12842   0.147E-01    0.292E-01
RMM:   6    -0.116006410874E+04    0.42556E-03   -0.23464E-03 11932   0.519E-02    0.243E-01
RMM:   7    -0.116006394308E+04    0.16566E-03   -0.98464E-04 11127   0.277E-02    0.119E-01
RMM:   8    -0.116006402892E+04   -0.85840E-04   -0.35221E-04  9408   0.230E-02
   5 F= -.11600640E+04 E0= -.11600640E+04  d E =-.471789E+00  mag=     8.0000
       N       E                     dE             d eps       ncg     rms          rms(c)
DAV:   1    -0.115966549321E+04    0.39845E+00   -0.11191E+02 12632   0.109E+01    0.525E+00
RMM:   2    -0.116001676194E+04   -0.35127E+00   -0.49316E+00 12398   0.230E+00    0.592E+00
RMM:   3    -0.115999370624E+04    0.23056E-01   -0.28864E-01 13967   0.705E-01    0.528E+00
RMM:   4    -0.115996280189E+04    0.30904E-01   -0.20618E-01 12934   0.435E-01    0.238E+00
RMM:   5    -0.115994248430E+04    0.20318E-01   -0.75089E-02 12788   0.299E-01    0.783E-01
RMM:   6    -0.115993866731E+04    0.38170E-02   -0.76611E-03 13726   0.953E-02    0.475E-01
RMM:   7    -0.115993774417E+04    0.92314E-03   -0.40491E-03 13835   0.519E-02    0.247E-01
RMM:   8    -0.115993764573E+04    0.98446E-04   -0.16188E-03 12191   0.367E-02    0.939E-02
RMM:   9    -0.115993775128E+04   -0.10556E-03   -0.37367E-04  9999   0.216E-02    0.477E-02
RMM:  10    -0.115993786417E+04   -0.11288E-03   -0.18284E-04  8654   0.147E-02    0.423E-02
RMM:  11    -0.115993793481E+04   -0.70642E-04   -0.90776E-05  7971   0.111E-02
   6 F= -.11599379E+04 E0= -.11599379E+04  d E =0.126094E+00  mag=     8.0000
       N       E                     dE             d eps       ncg     rms          rms(c)
DAV:   1    -0.116014791554E+04   -0.21005E+00   -0.50630E+01 12400   0.691E+00    0.474E+00
RMM:   2    -0.116028279010E+04   -0.13487E+00   -0.23361E+00 12310   0.166E+00    0.491E+00
RMM:   3    -0.116025017621E+04    0.32614E-01   -0.11492E-01 13417   0.446E-01    0.375E+00
RMM:   4    -0.116025069145E+04   -0.51525E-03   -0.12015E-01 12713   0.335E-01    0.137E+00
RMM:   5    -0.116023233982E+04    0.18352E-01   -0.31271E-02 12947   0.167E-01    0.365E-01
RMM:   6    -0.116023183253E+04    0.50729E-03   -0.27709E-03 12782   0.551E-02    0.251E-01
RMM:   7    -0.116023182940E+04    0.31301E-05   -0.11070E-03 11738   0.303E-02    0.109E-01
RMM:   8    -0.116023191068E+04   -0.81278E-04   -0.35302E-04  9502   0.204E-02
   7 F= -.11602319E+04 E0= -.11602319E+04  d E =-.293976E+00  mag=     8.0000
       N       E                     dE             d eps       ncg     rms          rms(c)
DAV:   1    -0.116026854913E+04   -0.36720E-01   -0.90381E+00 12864   0.333E+00    0.120E+00
RMM:   2    -0.116028676650E+04   -0.18217E-01   -0.29381E-01 12453   0.660E-01    0.118E+00
RMM:   3    -0.116028444712E+04    0.23194E-02   -0.16636E-02 12765   0.220E-01    0.855E-01
RMM:   4    -0.116028277517E+04    0.16720E-02   -0.91533E-03 12825   0.102E-01    0.461E-01
RMM:   5    -0.116028193983E+04    0.83534E-03   -0.28475E-03 11707   0.617E-02    0.133E-01
RMM:   6    -0.116028198373E+04   -0.43893E-04   -0.38508E-04  9978   0.216E-02    0.929E-02
RMM:   7    -0.116028209105E+04   -0.10733E-03   -0.15497E-04  7968   0.152E-02    0.587E-02
RMM:   8    -0.116028223326E+04   -0.14220E-03   -0.13204E-04  7671   0.123E-02    0.402E-02
RMM:   9    -0.116028231078E+04   -0.77521E-04   -0.59055E-05  7339   0.892E-03
   8 F= -.11602823E+04 E0= -.11602823E+04  d E =-.504001E-01  mag=     8.0000
       N       E                     dE             d eps       ncg     rms          rms(c)
DAV:   1    -0.116029193284E+04   -0.96996E-02   -0.10319E+00 13224   0.115E+00    0.355E-01
RMM:   2    -0.116029351946E+04   -0.15866E-02   -0.34461E-02 12348   0.233E-01    0.345E-01
RMM:   3    -0.116029327581E+04    0.24364E-03   -0.19056E-03 12481   0.762E-02    0.235E-01
RMM:   4    -0.116029305936E+04    0.21645E-03   -0.11866E-03 11246   0.379E-02    0.128E-01
RMM:   5    -0.116029306950E+04   -0.10144E-04   -0.35914E-04  9820   0.261E-02    0.535E-02
RMM:   6    -0.116029313206E+04   -0.62558E-04   -0.75589E-05  7381   0.121E-02    0.444E-02
RMM:   7    -0.116029321057E+04   -0.78511E-04   -0.55981E-05  7184   0.816E-03    0.427E-02
RMM:   8    -0.116029332223E+04   -0.11166E-03   -0.68264E-05  7096   0.951E-03    0.345E-02
RMM:   9    -0.116029342385E+04   -0.10162E-03   -0.65033E-05  6730   0.743E-03    0.343E-02
RMM:  10    -0.116029349109E+04   -0.67243E-04   -0.36688E-05  6470   0.546E-03
   9 F= -.11602935E+04 E0= -.11602935E+04  d E =-.111803E-01  mag=     8.0000
       N       E                     dE             d eps       ncg     rms          rms(c)
DAV:   1    -0.116029584544E+04   -0.24216E-02   -0.51661E+00 12608   0.254E+00    0.700E-01
RMM:   2    -0.116030828687E+04   -0.12441E-01   -0.14560E-01 12521   0.454E-01    0.607E-01
RMM:   3    -0.116030794018E+04    0.34669E-03   -0.76124E-03 12566   0.155E-01    0.428E-01
RMM:   4    -0.116030780367E+04    0.13651E-03   -0.31403E-03 12914   0.586E-02    0.224E-01
RMM:   5    -0.116030771234E+04    0.91326E-04   -0.87451E-04 11092   0.309E-02    0.590E-02
RMM:   6    -0.116030777203E+04   -0.59686E-04   -0.10784E-04  7603   0.157E-02    0.480E-02
RMM:   7    -0.116030790778E+04   -0.13575E-03   -0.11920E-04  7449   0.117E-02    0.387E-02
RMM:   8    -0.116030800446E+04   -0.96682E-04   -0.71097E-05  7182   0.938E-03
  10 F= -.11603080E+04 E0= -.11603080E+04  d E =-.145134E-01  mag=     8.0000
       N       E                     dE             d eps       ncg     rms          rms(c)
DAV:   1    -0.116031203504E+04   -0.41273E-02   -0.10689E+00 12800   0.112E+00    0.516E-01
RMM:   2    -0.116031471995E+04   -0.26849E-02   -0.37670E-02 12332   0.228E-01    0.450E-01
RMM:   3    -0.116031445008E+04    0.26986E-03   -0.22120E-03 11996   0.738E-02    0.304E-01
RMM:   4    -0.116031444028E+04    0.98038E-05   -0.15449E-03 11268   0.408E-02    0.135E-01
RMM:   5    -0.116031442815E+04    0.12125E-04   -0.30153E-04  9083   0.220E-02    0.540E-02
RMM:   6    -0.116031449410E+04   -0.65944E-04   -0.69224E-05  7312   0.105E-02    0.429E-02
RMM:   7    -0.116031460764E+04   -0.11354E-03   -0.76372E-05  7179   0.987E-03    0.367E-02
RMM:   8    -0.116031471508E+04   -0.10745E-03   -0.71808E-05  6968   0.802E-03    0.338E-02
RMM:   9    -0.116031477882E+04   -0.63738E-04   -0.37235E-05  6363   0.538E-03
  11 F= -.11603148E+04 E0= -.11603148E+04  d E =-.677436E-02  mag=     8.0000
       N       E                     dE             d eps       ncg     rms          rms(c)
DAV:   1    -0.116031172480E+04    0.29903E-02   -0.87610E+00 12560   0.336E+00    0.607E-01
RMM:   2    -0.116033144949E+04   -0.19725E-01   -0.21763E-01 12603   0.566E-01    0.415E-01
RMM:   3    -0.116033143291E+04    0.16581E-04   -0.11330E-02 12565   0.205E-01    0.286E-01
RMM:   4    -0.116033118213E+04    0.25079E-03   -0.37121E-03 14071   0.655E-02    0.149E-01
RMM:   5    -0.116033122857E+04   -0.46443E-04   -0.65470E-04 11597   0.269E-02    0.544E-02
RMM:   6    -0.116033133671E+04   -0.10814E-03   -0.13448E-04  7666   0.165E-02    0.459E-02
RMM:   7    -0.116033148780E+04   -0.15108E-03   -0.13365E-04  7548   0.124E-02    0.426E-02
RMM:   8    -0.116033160074E+04   -0.11294E-03   -0.87619E-05  7271   0.109E-02    0.386E-02
RMM:   9    -0.116033170123E+04   -0.10049E-03   -0.68231E-05  7119   0.905E-03    0.384E-02
RMM:  10    -0.116033174253E+04   -0.41301E-04   -0.30822E-05  6802   0.666E-03
  12 F= -.11603317E+04 E0= -.11603317E+04  d E =-.169637E-01  mag=     8.0000
       N       E                     dE             d eps       ncg     rms          rms(c)
DAV:   1    -0.116032799528E+04    0.37059E-02   -0.63542E+00 12640   0.287E+00    0.517E-01
RMM:   2    -0.116034228259E+04   -0.14287E-01   -0.15795E-01 12626   0.481E-01    0.359E-01
RMM:   3    -0.116034224889E+04    0.33702E-04   -0.81271E-03 12625   0.174E-01    0.244E-01
RMM:   4    -0.116034211361E+04    0.13528E-03   -0.25999E-03 13893   0.560E-02    0.134E-01
RMM:   5    -0.116034217085E+04   -0.57246E-04   -0.54137E-04 11027   0.252E-02    0.493E-02
RMM:   6    -0.116034227874E+04   -0.10789E-03   -0.11975E-04  7519   0.158E-02    0.432E-02
RMM:   7    -0.116034242576E+04   -0.14702E-03   -0.12677E-04  7468   0.120E-02    0.409E-02
RMM:   8    -0.116034253894E+04   -0.11318E-03   -0.84442E-05  7197   0.107E-02    0.383E-02
RMM:   9    -0.116034264294E+04   -0.10400E-03   -0.68906E-05  7036   0.863E-03    0.381E-02
RMM:  10    -0.116034268805E+04   -0.45114E-04   -0.30729E-05  6740   0.654E-03
  13 F= -.11603427E+04 E0= -.11603427E+04  d E =-.109455E-01  mag=     8.0000
       N       E                     dE             d eps       ncg     rms          rms(c)
DAV:   1    -0.116034098262E+04    0.16603E-02   -0.37111E+00 12728   0.220E+00    0.384E-01
RMM:   2    -0.116034929823E+04   -0.83156E-02   -0.91149E-02 12563   0.369E-01    0.274E-01
RMM:   3    -0.116034930746E+04   -0.92359E-05   -0.46759E-03 12490   0.133E-01    0.187E-01
RMM:   4    -0.116034928596E+04    0.21503E-04   -0.14915E-03 13059   0.434E-02    0.112E-01
RMM:   5    -0.116034935905E+04   -0.73090E-04   -0.40148E-04  9737   0.232E-02    0.448E-02
RMM:   6    -0.116034945773E+04   -0.98685E-04   -0.10174E-04  7383   0.143E-02    0.408E-02
RMM:   7    -0.116034956170E+04   -0.10397E-03   -0.85099E-05  7262   0.107E-02    0.401E-02
RMM:   8    -0.116034969106E+04   -0.12936E-03   -0.84717E-05  7116   0.109E-02    0.376E-02
RMM:   9    -0.116034982736E+04   -0.13630E-03   -0.93466E-05  7024   0.910E-03    0.371E-02
RMM:  10    -0.116034993951E+04   -0.11215E-03   -0.70623E-05  6823   0.799E-03    0.370E-02
RMM:  11    -0.116035024003E+04   -0.30052E-03   -0.34514E-04  7637   0.187E-02    0.359E-02
RMM:  12    -0.116035099963E+04   -0.75960E-03   -0.33086E-03 10086   0.587E-02    0.351E-02
RMM:  13    -0.116035127278E+04   -0.27315E-03   -0.59929E-04  8229   0.217E-02    0.315E-02
RMM:  14    -0.116035181514E+04   -0.54237E-03   -0.20970E-03  9707   0.451E-02    0.298E-02
RMM:  15    -0.116035227386E+04   -0.45872E-03   -0.21136E-03  9585   0.444E-02    0.311E-02
RMM:  16    -0.116035221568E+04    0.58187E-04   -0.20139E-04  7580   0.156E-02
  14 F= -.11603522E+04 E0= -.11603522E+04  d E =-.952762E-02  mag=     8.0000
       N       E                     dE             d eps       ncg     rms          rms(c)
DAV:   1    -0.116035020162E+04    0.20722E-02   -0.33738E+00 12696   0.211E+00    0.368E-01
RMM:   2    -0.116035800636E+04   -0.78047E-02   -0.84142E-02 12680   0.363E-01    0.247E-01
RMM:   3    -0.116035802359E+04   -0.17235E-04   -0.42138E-03 12650   0.125E-01    0.166E-01
RMM:   4    -0.116035797959E+04    0.44007E-04   -0.12474E-03 12722   0.406E-02    0.879E-02
RMM:   5    -0.116035805186E+04   -0.72272E-04   -0.28434E-04  8604   0.212E-02    0.393E-02
RMM:   6    -0.116035812380E+04   -0.71944E-04   -0.83248E-05  7261   0.125E-02    0.353E-02
RMM:   7    -0.116035820052E+04   -0.76713E-04   -0.66113E-05  7154   0.105E-02    0.343E-02
RMM:   8    -0.116035830995E+04   -0.10943E-03   -0.77406E-05  7048   0.101E-02    0.325E-02
RMM:   9    -0.116035838233E+04   -0.72381E-04   -0.52995E-05  6823   0.666E-03
  15 F= -.11603584E+04 E0= -.11603584E+04  d E =-.616665E-02  mag=     8.0000
       N       E                     dE             d eps       ncg     rms          rms(c)
DAV:   1    -0.116035682877E+04    0.14812E-02   -0.23906E+00 12672   0.177E+00    0.309E-01
RMM:   2    -0.116036224322E+04   -0.54144E-02   -0.58245E-02 12642   0.298E-01    0.203E-01
RMM:   3    -0.116036226653E+04   -0.23311E-04   -0.29379E-03 12494   0.105E-01    0.137E-01
RMM:   4    -0.116036227063E+04   -0.40986E-05   -0.89981E-04 12244   0.347E-02    0.744E-02
RMM:   5    -0.116036236554E+04   -0.94911E-04   -0.21180E-04  7868   0.198E-02    0.396E-02
RMM:   6    -0.116036244290E+04   -0.77357E-04   -0.83354E-05  7219   0.116E-02    0.365E-02
RMM:   7    -0.116036251279E+04   -0.69891E-04   -0.56814E-05  7071   0.101E-02    0.356E-02
RMM:   8    -0.116036265617E+04   -0.14338E-03   -0.10223E-04  7018   0.114E-02    0.338E-02
RMM:   9    -0.116036274782E+04   -0.91654E-04   -0.72355E-05  6817   0.722E-03
  16 F= -.11603627E+04 E0= -.11603627E+04  d E =-.436549E-02  mag=     8.0000
       N       E                     dE             d eps       ncg     rms          rms(c)
DAV:   1    -0.116036120771E+04    0.14485E-02   -0.20677E+00 12640   0.166E+00    0.288E-01
RMM:   2    -0.116036597367E+04   -0.47660E-02   -0.50682E-02 12787   0.280E-01    0.184E-01
RMM:   3    -0.116036599543E+04   -0.21758E-04   -0.24901E-03 12634   0.953E-02    0.125E-01
RMM:   4    -0.116036603316E+04   -0.37734E-04   -0.73035E-04 11753   0.325E-02    0.656E-02
RMM:   5    -0.116036613879E+04   -0.10563E-03   -0.18432E-04  7609   0.194E-02    0.401E-02
RMM:   6    -0.116036621656E+04   -0.77771E-04   -0.79826E-05  7189   0.111E-02    0.371E-02
RMM:   7    -0.116036629309E+04   -0.76524E-04   -0.56235E-05  7051   0.101E-02    0.364E-02
RMM:   8    -0.116036648491E+04   -0.19183E-03   -0.15632E-04  7158   0.135E-02    0.348E-02
RMM:   9    -0.116036658734E+04   -0.10242E-03   -0.89234E-05  6843   0.786E-03    0.342E-02
RMM:  10    -0.116036670888E+04   -0.12154E-03   -0.83709E-05  6927   0.912E-03    0.339E-02
RMM:  11    -0.116036735077E+04   -0.64189E-03   -0.22030E-03  9787   0.487E-02    0.320E-02
RMM:  12    -0.116036804074E+04   -0.68998E-03   -0.44948E-03 10194   0.690E-02    0.341E-02
RMM:  13    -0.116036817517E+04   -0.13443E-03   -0.38556E-04  7992   0.172E-02    0.299E-02
RMM:  14    -0.116036810200E+04    0.73169E-04   -0.50520E-05  6865   0.113E-02
  17 F= -.11603681E+04 E0= -.11603681E+04  d E =-.535418E-02  mag=     8.0000
       N       E                     dE             d eps       ncg     rms          rms(c)
DAV:   1    -0.116036714183E+04    0.10333E-02   -0.15234E+00 12784   0.142E+00    0.252E-01
RMM:   2    -0.116037074026E+04   -0.35984E-02   -0.37847E-02 12898   0.245E-01    0.161E-01
RMM:   3    -0.116037076897E+04   -0.28710E-04   -0.18249E-03 12347   0.802E-02    0.108E-01
RMM:   4    -0.116037079529E+04   -0.26321E-04   -0.48251E-04 10186   0.276E-02    0.605E-02
RMM:   5    -0.116037088576E+04   -0.90470E-04   -0.15735E-04  7388   0.177E-02    0.346E-02
RMM:   6    -0.116037094470E+04   -0.58939E-04   -0.62869E-05  7118   0.104E-02    0.327E-02
RMM:   7    -0.116037100108E+04   -0.56379E-04   -0.42902E-05  6948   0.878E-03    0.320E-02
RMM:   8    -0.116037112799E+04   -0.12691E-03   -0.91463E-05  6916   0.105E-02    0.308E-02
RMM:   9    -0.116037123158E+04   -0.10359E-03   -0.84966E-05  6732   0.780E-03    0.304E-02
RMM:  10    -0.116037134643E+04   -0.11486E-03   -0.87324E-05  6794   0.838E-03    0.297E-02
RMM:  11    -0.116037192610E+04   -0.57966E-03   -0.24188E-03  9867   0.510E-02    0.284E-02
RMM:  12    -0.116037244643E+04   -0.52033E-03   -0.30445E-03 10020   0.557E-02    0.280E-02
RMM:  13    -0.116037258793E+04   -0.14150E-03   -0.41278E-04  7934   0.162E-02    0.260E-02
RMM:  14    -0.116037262118E+04   -0.33245E-04   -0.46688E-05  6656   0.937E-03
  18 F= -.11603726E+04 E0= -.11603726E+04  d E =-.451917E-02  mag=     8.0000
       N       E                     dE             d eps       ncg     rms          rms(c)
DAV:   1    -0.116037215124E+04    0.43669E-03   -0.10776E+00 12736   0.120E+00    0.215E-01
RMM:   2    -0.116037473579E+04   -0.25845E-02   -0.27185E-02 13005   0.209E-01    0.140E-01
RMM:   3    -0.116037475328E+04   -0.17494E-04   -0.12843E-03 11823   0.662E-02    0.933E-02
RMM:   4    -0.116037477017E+04   -0.16891E-04   -0.30289E-04  8552   0.235E-02    0.537E-02
RMM:   5    -0.116037484273E+04   -0.72554E-04   -0.13096E-04  7306   0.154E-02    0.298E-02
RMM:   6    -0.116037488474E+04   -0.42014E-04   -0.46246E-05  7028   0.991E-03    0.282E-02
RMM:   7    -0.116037492922E+04   -0.44482E-04   -0.35253E-05  6848   0.731E-03    0.276E-02
RMM:   8    -0.116037500524E+04   -0.76019E-04   -0.48612E-05  6729   0.792E-03
  19 F= -.11603750E+04 E0= -.11603750E+04  d E =-.238407E-02  mag=     8.0000
       N       E                     dE             d eps       ncg     rms          rms(c)
DAV:   1    -0.116037367332E+04    0.12559E-02   -0.14262E+00 12608   0.138E+00    0.246E-01
RMM:   2    -0.116037702633E+04   -0.33530E-02   -0.35289E-02 12998   0.237E-01    0.155E-01
RMM:   3    -0.116037704210E+04   -0.15773E-04   -0.16734E-03 12475   0.756E-02    0.104E-01
RMM:   4    -0.116037704990E+04   -0.77947E-05   -0.42929E-04  9749   0.266E-02    0.575E-02
RMM:   5    -0.116037713372E+04   -0.83818E-04   -0.15100E-04  7359   0.174E-02    0.325E-02
RMM:   6    -0.116037718052E+04   -0.46800E-04   -0.55055E-05  7102   0.105E-02    0.306E-02
RMM:   7    -0.116037722710E+04   -0.46589E-04   -0.39698E-05  6947   0.861E-03    0.301E-02
RMM:   8    -0.116037732657E+04   -0.99462E-04   -0.68408E-05  6841   0.941E-03
  20 F= -.11603773E+04 E0= -.11603773E+04  d E =-.232132E-02  mag=     8.0000
       N       E                     dE             d eps       ncg     rms          rms(c)
DAV:   1    -0.116037699292E+04    0.23419E-03   -0.70874E-01 12816   0.980E-01    0.178E-01
RMM:   2    -0.116037868633E+04   -0.16934E-02   -0.17730E-02 12961   0.168E-01    0.116E-01
RMM:   3    -0.116037871137E+04   -0.25033E-04   -0.83860E-04 10879   0.548E-02    0.791E-02
RMM:   4    -0.116037875950E+04   -0.48136E-04   -0.23609E-04  7696   0.204E-02    0.447E-02
RMM:   5    -0.116037884407E+04   -0.84567E-04   -0.10641E-04  7218   0.130E-02    0.304E-02
RMM:   6    -0.116037889252E+04   -0.48449E-04   -0.44637E-05  6986   0.928E-03    0.301E-02
RMM:   7    -0.116037893200E+04   -0.39485E-04   -0.29920E-05  6787   0.628E-03    0.293E-02
RMM:   8    -0.116037901574E+04   -0.83735E-04   -0.49609E-05  6724   0.853E-03
  21 F= -.11603790E+04 E0= -.11603790E+04  d E =-.168917E-02  mag=     8.0000
       N       E                     dE             d eps       ncg     rms          rms(c)
DAV:   1    -0.116037838758E+04    0.54442E-03   -0.82468E-01 12672   0.105E+00    0.187E-01
RMM:   2    -0.116038031137E+04   -0.19238E-02   -0.20250E-02 12882   0.178E-01    0.118E-01
RMM:   3    -0.116038033200E+04   -0.20633E-04   -0.95704E-04 11340   0.590E-02    0.806E-02
RMM:   4    -0.116038037578E+04   -0.43773E-04   -0.26803E-04  8006   0.216E-02    0.459E-02
RMM:   5    -0.116038045738E+04   -0.81607E-04   -0.11070E-04  7220   0.137E-02    0.306E-02
RMM:   6    -0.116038050416E+04   -0.46772E-04   -0.45757E-05  6989   0.957E-03    0.299E-02
RMM:   7    -0.116038055111E+04   -0.46953E-04   -0.34035E-05  6820   0.676E-03    0.293E-02
RMM:   8    -0.116038063284E+04   -0.81735E-04   -0.48812E-05  6704   0.814E-03
  22 F= -.11603806E+04 E0= -.11603806E+04  d E =-.161710E-02  mag=     8.0000
       N       E                     dE             d eps       ncg     rms          rms(c)
DAV:   1    -0.116038017467E+04    0.37643E-03   -0.63646E-01 12720   0.930E-01    0.164E-01
RMM:   2    -0.116038168222E+04   -0.15075E-02   -0.15756E-02 12903   0.157E-01    0.102E-01
RMM:   3    -0.116038170445E+04   -0.22229E-04   -0.72483E-04 10475   0.516E-02    0.706E-02
RMM:   4    -0.116038176150E+04   -0.57049E-04   -0.21844E-04  7528   0.197E-02    0.395E-02
RMM:   5    -0.116038183694E+04   -0.75437E-04   -0.88569E-05  7138   0.119E-02    0.300E-02
RMM:   6    -0.116038187889E+04   -0.41954E-04   -0.38456E-05  6955   0.888E-03    0.298E-02
RMM:   7    -0.116038191611E+04   -0.37221E-04   -0.27139E-05  6725   0.598E-03    0.288E-02
RMM:   8    -0.116038197557E+04   -0.59453E-04   -0.30718E-05  6550   0.695E-03
  23 F= -.11603820E+04 E0= -.11603820E+04  d E =-.134272E-02  mag=     8.0000
       N       E                     dE             d eps       ncg     rms          rms(c)
DAV:   1    -0.116038149281E+04    0.42330E-03   -0.62623E-01 12784   0.922E-01    0.160E-01
RMM:   2    -0.116038296701E+04   -0.14742E-02   -0.15447E-02 12787   0.155E-01    0.100E-01
RMM:   3    -0.116038299275E+04   -0.25737E-04   -0.73327E-04 10607   0.529E-02    0.688E-02
RMM:   4    -0.116038304854E+04   -0.55791E-04   -0.21498E-04  7548   0.196E-02    0.394E-02
RMM:   5    -0.116038312089E+04   -0.72343E-04   -0.87147E-05  7128   0.118E-02    0.298E-02
RMM:   6    -0.116038316003E+04   -0.39149E-04   -0.37107E-05  6937   0.873E-03    0.296E-02
RMM:   7    -0.116038319427E+04   -0.34237E-04   -0.25296E-05  6693   0.587E-03    0.286E-02
RMM:   8    -0.116038323506E+04   -0.40792E-04   -0.20230E-05  6410   0.594E-03
  24 F= -.11603832E+04 E0= -.11603832E+04  d E =-.125950E-02  mag=     8.0000
       N       E                     dE             d eps       ncg     rms          rms(c)
DAV:   1    -0.116038264614E+04    0.54813E-03   -0.62133E-01 12776   0.920E-01    0.160E-01
RMM:   2    -0.116038410735E+04   -0.14612E-02   -0.15268E-02 12765   0.154E-01    0.987E-02
RMM:   3    -0.116038413461E+04   -0.27255E-04   -0.72598E-04 10545   0.529E-02    0.679E-02
RMM:   4    -0.116038418955E+04   -0.54942E-04   -0.20992E-04  7504   0.196E-02    0.383E-02
RMM:   5    -0.116038426069E+04   -0.71137E-04   -0.85087E-05  7118   0.116E-02    0.293E-02
RMM:   6    -0.116038429835E+04   -0.37664E-04   -0.35835E-05  6931   0.867E-03    0.291E-02
RMM:   7    -0.116038432753E+04   -0.29178E-04   -0.23389E-05  6667   0.571E-03    0.283E-02
RMM:   8    -0.116038436055E+04   -0.33026E-04   -0.16713E-05  6302   0.574E-03
  25 F= -.11603844E+04 E0= -.11603844E+04  d E =-.112549E-02  mag=     8.0000
       N       E                     dE             d eps       ncg     rms          rms(c)
DAV:   1    -0.116038421761E+04    0.10992E-03   -0.31720E-01 12848   0.659E-01    0.118E-01
RMM:   2    -0.116038498863E+04   -0.77102E-03   -0.79057E-03 12665   0.111E-01    0.757E-02
RMM:   3    -0.116038501700E+04   -0.28366E-04   -0.35895E-04  8660   0.385E-02    0.540E-02
RMM:   4    -0.116038508639E+04   -0.69394E-04   -0.14369E-04  7228   0.155E-02    0.343E-02
RMM:   5    -0.116038514673E+04   -0.60339E-04   -0.60196E-05  6999   0.918E-03    0.288E-02
RMM:   6    -0.116038517948E+04   -0.32746E-04   -0.25652E-05  6780   0.705E-03    0.280E-02
RMM:   7    -0.116038520443E+04   -0.24948E-04   -0.16333E-05  6124   0.490E-03    0.275E-02
RMM:   8    -0.116038522148E+04   -0.17051E-04   -0.88232E-06  5644   0.424E-03
  26 F= -.11603852E+04 E0= -.11603852E+04  d E =-.860923E-03  mag=     8.0000
