       N       E                     dE             d eps       ncg     rms          rms(c)
DAV:   1    -0.116463522123E+04   -0.11646E+04   -0.41595E-06  7392   0.470E-03    0.721E-03
RMM:   2    -0.116463522125E+04   -0.23312E-07   -0.37174E-06  5008   0.256E-03    0.646E-03
RMM:   3    -0.116463522095E+04    0.29721E-06   -0.77541E-07  3045   0.198E-03    0.121E-03
RMM:   4    -0.116463522096E+04   -0.33324E-08   -0.38179E-08  1612   0.184E-03    0.111E-03
RMM:   5    -0.116463522097E+04   -0.99972E-08   -0.56666E-08  1176   0.186E-03    0.719E-04
RMM:   6    -0.116463522098E+04   -0.13941E-07   -0.74767E-08  1039   0.187E-03    0.532E-04
RMM:   7    -0.116463522100E+04   -0.15978E-07   -0.79116E-08   990   0.187E-03    0.476E-04
RMM:   8    -0.116463522102E+04   -0.17768E-07   -0.61300E-08   942   0.187E-03
   1 F= -.11646352E+04 E0= -.11646344E+04  d E =-.116464E+04  mag=     1.9842
       N       E                     dE             d eps       ncg     rms          rms(c)
DAV:   1    -0.116463585813E+04   -0.63714E-03   -0.35112E-01 12736   0.677E-01    0.124E-01
RMM:   2    -0.116463661912E+04   -0.76099E-03   -0.88396E-03 12229   0.112E-01    0.818E-02
RMM:   3    -0.116463658057E+04    0.38552E-04   -0.32956E-04  8689   0.274E-02    0.534E-02
RMM:   4    -0.116463655278E+04    0.27791E-04   -0.12305E-04  7154   0.122E-02    0.219E-02
RMM:   5    -0.116463655230E+04    0.48218E-06   -0.29190E-05  6782   0.616E-03    0.102E-02
RMM:   6    -0.116463655361E+04   -0.13174E-05   -0.12262E-05  6521   0.396E-03    0.675E-03
RMM:   7    -0.116463655420E+04   -0.58542E-06   -0.53883E-06  4869   0.277E-03    0.427E-03
RMM:   8    -0.116463655467E+04   -0.47042E-06   -0.31736E-06  4366   0.248E-03
   2 F= -.11646366E+04 E0= -.11646357E+04  d E =-.133365E-02  mag=     1.9842
       N       E                     dE             d eps       ncg     rms          rms(c)
DAV:   1    -0.116463720571E+04   -0.65151E-03   -0.85122E-02 12352   0.335E-01    0.655E-02
RMM:   2    -0.116463738057E+04   -0.17486E-03   -0.22609E-03 12109   0.571E-02    0.466E-02
RMM:   3    -0.116463736601E+04    0.14556E-04   -0.77837E-05  7043   0.139E-02    0.305E-02
RMM:   4    -0.116463735729E+04    0.87211E-05   -0.42477E-05  6811   0.725E-03    0.137E-02
RMM:   5    -0.116463735627E+04    0.10214E-05   -0.99375E-06  5810   0.369E-03    0.778E-03
RMM:   6    -0.116463735664E+04   -0.36824E-06   -0.37269E-06  4593   0.255E-03    0.503E-03
RMM:   7    -0.116463735679E+04   -0.15333E-06   -0.13036E-06  3386   0.208E-03    0.312E-03
RMM:   8    -0.116463735688E+04   -0.90324E-07   -0.32115E-07  2128   0.196E-03
   3 F= -.11646374E+04 E0= -.11646365E+04  d E =-.802210E-03  mag=     1.9843
       N       E                     dE             d eps       ncg     rms          rms(c)
DAV:   1    -0.116463787071E+04   -0.51392E-03   -0.11003E-01 12288   0.380E-01    0.673E-02
RMM:   2    -0.116463811909E+04   -0.24838E-03   -0.27641E-03 12146   0.627E-02    0.430E-02
RMM:   3    -0.116463810896E+04    0.10129E-04   -0.91898E-05  7073   0.154E-02    0.280E-02
RMM:   4    -0.116463810348E+04    0.54811E-05   -0.38923E-05  6774   0.703E-03    0.118E-02
RMM:   5    -0.116463810377E+04   -0.29166E-06   -0.90649E-06  5872   0.354E-03    0.467E-03
RMM:   6    -0.116463810414E+04   -0.36675E-06   -0.29714E-06  4134   0.248E-03    0.281E-03
RMM:   7    -0.116463810433E+04   -0.19261E-06   -0.12052E-06  3063   0.214E-03    0.169E-03
RMM:   8    -0.116463810441E+04   -0.84328E-07   -0.41092E-07  1913   0.205E-03
   4 F= -.11646381E+04 E0= -.11646372E+04  d E =-.747532E-03  mag=     1.9843
       N       E                     dE             d eps       ncg     rms          rms(c)
DAV:   1    -0.116463805670E+04    0.47626E-04   -0.10129E+00 12816   0.116E+00    0.197E-01
RMM:   2    -0.116464036554E+04   -0.23088E-02   -0.24941E-02 12297   0.188E-01    0.121E-01
RMM:   3    -0.116464031540E+04    0.50133E-04   -0.10012E-03 11442   0.459E-02    0.781E-02
RMM:   4    -0.116464026669E+04    0.48716E-04   -0.28677E-04  8490   0.167E-02    0.357E-02
RMM:   5    -0.116464026560E+04    0.10872E-05   -0.55400E-05  7091   0.836E-03    0.126E-02
RMM:   6    -0.116464026853E+04   -0.29306E-05   -0.20077E-05  6852   0.510E-03    0.861E-03
RMM:   7    -0.116464027000E+04   -0.14746E-05   -0.10873E-05  6438   0.378E-03    0.570E-03
RMM:   8    -0.116464027092E+04   -0.92099E-06   -0.68268E-06  6203   0.313E-03
   5 F= -.11646403E+04 E0= -.11646394E+04  d E =-.216651E-02  mag=     1.9845
