       N       E                     dE             d eps       ncg     rms          rms(c)
DAV:   1    -0.116514991679E+04   -0.11651E+04   -0.55996E-06  7800   0.472E-03    0.912E-03
RMM:   2    -0.116514991664E+04    0.14540E-06   -0.43879E-06  4868   0.269E-03    0.104E-02
RMM:   3    -0.116514991562E+04    0.10234E-05   -0.58957E-07  2737   0.193E-03    0.179E-03
RMM:   4    -0.116514991562E+04    0.23574E-08   -0.83847E-09  1143   0.181E-03    0.166E-03
RMM:   5    -0.116514991563E+04   -0.11205E-07   -0.20938E-07  1087   0.186E-03    0.351E-04
RMM:   6    -0.116514991563E+04   -0.17026E-08   -0.42662E-08   748   0.181E-03    0.148E-04
RMM:   7    -0.116514991563E+04   -0.64028E-09   -0.17008E-08   585   0.179E-03    0.117E-04
RMM:   8    -0.116514991563E+04   -0.10914E-08   -0.18144E-08   524   0.179E-03
   1 F= -.11651499E+04 E0= -.11651445E+04  d E =-.116515E+04  mag=     2.1767
       N       E                     dE             d eps       ncg     rms          rms(c)
DAV:   1    -0.116514996142E+04   -0.45794E-04   -0.79269E-02 12288   0.323E-01    0.862E-02
RMM:   2    -0.116515007682E+04   -0.11539E-03   -0.25569E-03 12112   0.627E-02    0.829E-02
RMM:   3    -0.116515004041E+04    0.36405E-04   -0.82090E-05  7216   0.134E-02    0.552E-02
RMM:   4    -0.116515001342E+04    0.26990E-04   -0.88831E-05  7091   0.102E-02    0.259E-02
RMM:   5    -0.116515000559E+04    0.78280E-05   -0.18849E-05  6388   0.490E-03    0.109E-02
RMM:   6    -0.116515000554E+04    0.57931E-07   -0.45771E-06  5071   0.261E-03    0.821E-03
RMM:   7    -0.116515000552E+04    0.11816E-07   -0.12641E-06  3605   0.200E-03    0.506E-03
RMM:   8    -0.116515000554E+04   -0.12093E-07   -0.13582E-07  2782   0.185E-03
   2 F= -.11651500E+04 E0= -.11651446E+04  d E =-.899068E-04  mag=     2.1756
       N       E                     dE             d eps       ncg     rms          rms(c)
DAV:   1    -0.116515026858E+04   -0.26306E-03   -0.15042E-02 12192   0.139E-01    0.431E-02
RMM:   2    -0.116515027253E+04   -0.39460E-05   -0.54904E-04 11185   0.284E-02    0.411E-02
RMM:   3    -0.116515026011E+04    0.12423E-04   -0.21233E-05  6311   0.642E-03    0.271E-02
RMM:   4    -0.116515025046E+04    0.96449E-05   -0.31062E-05  6148   0.586E-03    0.118E-02
RMM:   5    -0.116515024828E+04    0.21876E-05   -0.46349E-06  4615   0.264E-03    0.695E-03
RMM:   6    -0.116515024808E+04    0.19891E-06   -0.15325E-07  2267   0.176E-03    0.436E-03
RMM:   7    -0.116515024808E+04   -0.74215E-08   -0.36062E-07  1588   0.187E-03    0.196E-03
RMM:   8    -0.116515024808E+04    0.70286E-08   -0.11146E-07  1123   0.186E-03
   3 F= -.11651502E+04 E0= -.11651449E+04  d E =-.242540E-03  mag=     2.1748
