       N       E                     dE             d eps       ncg     rms          rms(c)
DAV:   1     0.121081636809E+05    0.12108E+05   -0.42641E+05 12352   0.132E+03
DAV:   2     0.712905285070E+03   -0.11395E+05   -0.10177E+05 12320   0.380E+02
DAV:   3    -0.134711551471E+04   -0.20600E+04   -0.19833E+04 13208   0.168E+02
DAV:   4    -0.149022413233E+04   -0.14311E+03   -0.14052E+03 16240   0.470E+01
DAV:   5    -0.149981687494E+04   -0.95927E+01   -0.95352E+01 22072   0.113E+01    0.182E+02
RMM:   6    -0.116230462336E+04    0.33751E+03   -0.16491E+03 12552   0.363E+01    0.134E+02
RMM:   7    -0.114449080030E+04    0.17814E+02   -0.61540E+01 12815   0.123E+01    0.771E+01
RMM:   8    -0.114734037155E+04   -0.28496E+01   -0.20760E+01 14025   0.498E+00    0.377E+01
RMM:   9    -0.115151611754E+04   -0.41757E+01   -0.80443E+00 12915   0.346E+00    0.135E+01
RMM:  10    -0.115269801108E+04   -0.11819E+01   -0.24214E+00 13777   0.186E+00    0.101E+01
RMM:  11    -0.115354036901E+04   -0.84236E+00   -0.11392E+00 15114   0.104E+00    0.746E+00
RMM:  12    -0.115432085267E+04   -0.78048E+00   -0.55274E-01 15229   0.715E-01    0.556E+00
RMM:  13    -0.115470379744E+04   -0.38294E+00   -0.36455E-01 14541   0.635E-01    0.410E+00
RMM:  14    -0.115497049527E+04   -0.26670E+00   -0.17058E-01 15118   0.383E-01    0.281E+00
RMM:  15    -0.115515888929E+04   -0.18839E+00   -0.17439E-01 13565   0.446E-01    0.173E+00
RMM:  16    -0.115522233699E+04   -0.63448E-01   -0.78848E-02 14844   0.271E-01    0.992E-01
RMM:  17    -0.115523954828E+04   -0.17211E-01   -0.30773E-02 14439   0.170E-01    0.921E-01
RMM:  18    -0.115524667837E+04   -0.71301E-02   -0.21156E-02 14525   0.156E-01    0.519E-01
RMM:  19    -0.115524800037E+04   -0.13220E-02   -0.56032E-03 13893   0.727E-02    0.368E-01
RMM:  20    -0.115524882391E+04   -0.82353E-03   -0.23839E-03 12924   0.462E-02    0.130E-01
RMM:  21    -0.115524948154E+04   -0.65764E-03   -0.10254E-03 11922   0.321E-02    0.206E-01
RMM:  22    -0.115524983274E+04   -0.35120E-03   -0.60791E-04 10236   0.241E-02    0.179E-01
RMM:  23    -0.115525017227E+04   -0.33953E-03   -0.38826E-04  9984   0.184E-02    0.183E-01
RMM:  24    -0.115525030686E+04   -0.13459E-03   -0.22191E-04  9611   0.132E-02    0.168E-01
RMM:  25    -0.115525072250E+04   -0.41564E-03   -0.24098E-04  9556   0.173E-02    0.196E-01
RMM:  26    -0.115524982184E+04    0.90066E-03   -0.63251E-04 10004   0.351E-02    0.187E-01
RMM:  27    -0.115525059673E+04   -0.77489E-03   -0.34465E-04  9048   0.267E-02    0.172E-01
RMM:  28    -0.115525285294E+04   -0.22562E-02   -0.46181E-03 11099   0.849E-02    0.241E-01
RMM:  29    -0.115525339510E+04   -0.54216E-03   -0.10490E-03 10310   0.302E-02    0.263E-01
RMM:  30    -0.115525183018E+04    0.15649E-02   -0.11883E-03 10284   0.493E-02    0.123E-01
RMM:  31    -0.115525139576E+04    0.43442E-03   -0.73192E-04  9798   0.313E-02    0.172E-01
RMM:  32    -0.115524789131E+04    0.35045E-02   -0.11703E-02 12043   0.134E-01    0.404E-01
RMM:  33    -0.115524685653E+04    0.10348E-02   -0.67080E-03 11498   0.882E-02    0.661E-01
RMM:  34    -0.115524714062E+04   -0.28409E-03   -0.10447E-03 10167   0.278E-02    0.713E-01
RMM:  35    -0.115524746891E+04   -0.32829E-03   -0.36003E-04  8743   0.285E-02    0.570E-01
RMM:  36    -0.115524750898E+04   -0.40066E-04   -0.31333E-05  7200   0.737E-03
   1 F= -.11552475E+04 E0= -.11552469E+04  d E =-.115525E+04  mag=    14.0001
       N       E                     dE             d eps       ncg     rms          rms(c)
DAV:   1    -0.111160395820E+04    0.43644E+02   -0.16933E+03 13280   0.341E+01    0.346E+01
RMM:   2    -0.115112481509E+04   -0.39521E+02   -0.13386E+02 13296   0.105E+01    0.314E+01
RMM:   3    -0.115462317734E+04   -0.34984E+01   -0.91548E+00 12752   0.368E+00    0.164E+01
RMM:   4    -0.115464825577E+04   -0.25078E-01   -0.20391E+00 14878   0.126E+00    0.124E+01
RMM:   5    -0.115460655499E+04    0.41701E-01   -0.36466E-01 14832   0.537E-01    0.684E+00
RMM:   6    -0.115460199995E+04    0.45550E-02   -0.42335E-01 13413   0.674E-01    0.696E+00
RMM:   7    -0.115462101235E+04   -0.19012E-01   -0.14258E-01 14256   0.406E-01    0.847E-01
RMM:   8    -0.115462824582E+04   -0.72335E-02   -0.32830E-02 16460   0.138E-01    0.763E-01
RMM:   9    -0.115463860914E+04   -0.10363E-01   -0.13249E-02 15016   0.967E-02    0.410E-01
RMM:  10    -0.115465450308E+04   -0.15894E-01   -0.12441E-02 13471   0.118E-01    0.376E-01
RMM:  11    -0.115465988332E+04   -0.53802E-02   -0.52743E-03 13826   0.610E-02    0.363E-01
RMM:  12    -0.115466466469E+04   -0.47814E-02   -0.28170E-03 11640   0.403E-02    0.363E-01
RMM:  13    -0.115466260028E+04    0.20644E-02   -0.68167E-04  9292   0.212E-02    0.365E-01
RMM:  14    -0.115466984864E+04   -0.72484E-02   -0.19372E-03 10257   0.509E-02    0.364E-01
RMM:  15    -0.115470306858E+04   -0.33220E-01   -0.33829E-02 11731   0.213E-01    0.359E-01
RMM:  16    -0.115473063636E+04   -0.27568E-01   -0.38655E-02 11698   0.218E-01    0.373E-01
RMM:  17    -0.115473202654E+04   -0.13902E-02   -0.56780E-03 11523   0.614E-02    0.391E-01
RMM:  18    -0.115471688233E+04    0.15144E-01   -0.50288E-03 10465   0.936E-02    0.412E-01
RMM:  19    -0.115471618975E+04    0.69257E-03   -0.79075E-04  8330   0.281E-02    0.412E-01
RMM:  20    -0.115473007912E+04   -0.13889E-01   -0.48681E-03 10394   0.876E-02    0.397E-01
RMM:  21    -0.115477367710E+04   -0.43598E-01   -0.97518E-02 12049   0.369E-01    0.338E-01
RMM:  22    -0.115479239159E+04   -0.18714E-01   -0.36600E-02 11533   0.184E-01    0.259E-01
RMM:  23    -0.115479757964E+04   -0.51881E-02   -0.17408E-02 11149   0.893E-02    0.299E-01
RMM:  24    -0.115478348774E+04    0.14092E-01   -0.71591E-03 10518   0.992E-02    0.341E-01
RMM:  25    -0.115478354826E+04   -0.60526E-04   -0.50476E-04  8043   0.219E-02
   2 F= -.11547835E+04 E0= -.11547835E+04  d E =0.463961E+00  mag=    14.0000
       N       E                     dE             d eps       ncg     rms          rms(c)
DAV:   1    -0.114818616947E+04    0.65973E+01   -0.32582E+02 13224   0.151E+01    0.182E+01
RMM:   2    -0.115639300445E+04   -0.82068E+01   -0.20343E+01 13377   0.444E+00    0.225E+01
RMM:   3    -0.115641983822E+04   -0.26834E-01   -0.14336E+00 12821   0.162E+00    0.878E+00
RMM:   4    -0.115637529578E+04    0.44542E-01   -0.54258E-01 13600   0.706E-01    0.680E+00
RMM:   5    -0.115636093565E+04    0.14360E-01   -0.22298E-01 13567   0.415E-01    0.171E+00
RMM:   6    -0.115636868520E+04   -0.77496E-02   -0.35822E-02 14018   0.180E-01    0.834E-01
RMM:   7    -0.115637272071E+04   -0.40355E-02   -0.84051E-03 14801   0.764E-02    0.606E-01
RMM:   8    -0.115637853728E+04   -0.58166E-02   -0.56177E-03 12641   0.717E-02    0.260E-01
RMM:   9    -0.115638393541E+04   -0.53981E-02   -0.44819E-03 12110   0.628E-02    0.215E-01
RMM:  10    -0.115638722813E+04   -0.32927E-02   -0.25858E-03 10936   0.421E-02    0.186E-01
RMM:  11    -0.115639150238E+04   -0.42743E-02   -0.26940E-03  9924   0.446E-02    0.173E-01
RMM:  12    -0.115640397980E+04   -0.12477E-01   -0.23718E-02 11202   0.148E-01    0.150E-01
RMM:  13    -0.115640810769E+04   -0.41279E-02   -0.79068E-03 10710   0.705E-02    0.141E-01
RMM:  14    -0.115641166226E+04   -0.35546E-02   -0.43185E-03  9713   0.525E-02    0.125E-01
RMM:  15    -0.115641730245E+04   -0.56402E-02   -0.99409E-03 10168   0.869E-02    0.102E-01
RMM:  16    -0.115642267359E+04   -0.53711E-02   -0.19941E-02 10802   0.125E-01    0.990E-02
RMM:  17    -0.115642413721E+04   -0.14636E-02   -0.29892E-03  9869   0.455E-02    0.798E-02
RMM:  18    -0.115642753394E+04   -0.33967E-02   -0.13862E-02 10398   0.103E-01    0.761E-02
RMM:  19    -0.115642982444E+04   -0.22905E-02   -0.96589E-03 10287   0.804E-02    0.532E-02
RMM:  20    -0.115643090843E+04   -0.10840E-02   -0.67048E-03  9948   0.644E-02    0.417E-02
RMM:  21    -0.115643153712E+04   -0.62870E-03   -0.40094E-03  9636   0.497E-02    0.270E-02
RMM:  22    -0.115643178346E+04   -0.24633E-03   -0.17056E-03  9019   0.313E-02    0.210E-02
RMM:  23    -0.115643187802E+04   -0.94561E-04   -0.85211E-04  8220   0.219E-02
   3 F= -.11564319E+04 E0= -.11564319E+04  d E =-.164833E+01  mag=    14.0000
       N       E                     dE             d eps       ncg     rms          rms(c)
DAV:   1    -0.115650586189E+04   -0.74078E-01   -0.49922E+01 13040   0.691E+00    0.424E+00
RMM:   2    -0.115672887003E+04   -0.22301E+00   -0.14221E+00 12459   0.142E+00    0.288E+00
RMM:   3    -0.115675115493E+04   -0.22285E-01   -0.84473E-02 13398   0.422E-01    0.165E+00
RMM:   4    -0.115674529922E+04    0.58557E-02   -0.23212E-02 13039   0.162E-01    0.722E-01
RMM:   5    -0.115674451389E+04    0.78533E-03   -0.74290E-03 12770   0.887E-02    0.232E-01
RMM:   6    -0.115674438818E+04    0.12571E-03   -0.10763E-03 11633   0.357E-02    0.210E-01
RMM:   7    -0.115674439603E+04   -0.78566E-05   -0.23856E-04  8806   0.139E-02    0.945E-02
RMM:   8    -0.115674440201E+04   -0.59759E-05   -0.15286E-04  8193   0.146E-02
   4 F= -.11567444E+04 E0= -.11567444E+04  d E =-.312524E+00  mag=    14.0000
       N       E                     dE             d eps       ncg     rms          rms(c)
DAV:   1    -0.115672820736E+04    0.16189E-01   -0.24344E+01 12928   0.478E+00    0.303E+00
RMM:   2    -0.115685091741E+04   -0.12271E+00   -0.66954E-01 12596   0.976E-01    0.210E+00
RMM:   3    -0.115686370977E+04   -0.12792E-01   -0.38221E-02 13496   0.281E-01    0.121E+00
RMM:   4    -0.115686038297E+04    0.33268E-02   -0.13743E-02 13536   0.115E-01    0.509E-01
RMM:   5    -0.115685999289E+04    0.39008E-03   -0.38776E-03 12595   0.634E-02    0.206E-01
RMM:   6    -0.115685995697E+04    0.35924E-04   -0.52046E-04  9969   0.257E-02    0.191E-01
RMM:   7    -0.115685996961E+04   -0.12641E-04   -0.14394E-04  8212   0.132E-02    0.955E-02
RMM:   8    -0.115685998647E+04   -0.16859E-04   -0.10171E-04  7808   0.130E-02
   5 F= -.11568600E+04 E0= -.11568600E+04  d E =-.115584E+00  mag=    14.0000
       N       E                     dE             d eps       ncg     rms          rms(c)
DAV:   1    -0.115686621242E+04   -0.62428E-02   -0.83856E+00 12904   0.319E+00    0.124E+00
RMM:   2    -0.115689372200E+04   -0.27510E-01   -0.22626E-01 12663   0.626E-01    0.907E-01
RMM:   3    -0.115689566015E+04   -0.19381E-02   -0.14537E-02 13698   0.180E-01    0.573E-01
RMM:   4    -0.115689457795E+04    0.10822E-02   -0.33821E-03 14254   0.618E-02    0.306E-01
RMM:   5    -0.115689437233E+04    0.20562E-03   -0.12319E-03 11861   0.351E-02    0.909E-02
RMM:   6    -0.115689438299E+04   -0.10660E-04   -0.13190E-04  8092   0.174E-02    0.590E-02
RMM:   7    -0.115689439157E+04   -0.85891E-05   -0.60625E-05  7471   0.105E-02    0.414E-02
RMM:   8    -0.115689439630E+04   -0.47236E-05   -0.39932E-05  7275   0.931E-03
   6 F= -.11568944E+04 E0= -.11568944E+04  d E =-.344098E-01  mag=    14.0000
       N       E                     dE             d eps       ncg     rms          rms(c)
DAV:   1    -0.115688829597E+04    0.60956E-02   -0.10333E+01 12768   0.364E+00    0.125E+00
RMM:   2    -0.115692114635E+04   -0.32850E-01   -0.26061E-01 12711   0.675E-01    0.794E-01
RMM:   3    -0.115692380997E+04   -0.26636E-02   -0.15986E-02 13557   0.207E-01    0.425E-01
RMM:   4    -0.115692297486E+04    0.83511E-03   -0.33181E-03 15185   0.630E-02    0.231E-01
RMM:   5    -0.115692276979E+04    0.20507E-03   -0.14227E-03 12592   0.357E-02    0.780E-02
RMM:   6    -0.115692278043E+04   -0.10640E-04   -0.15167E-04  8062   0.178E-02    0.422E-02
RMM:   7    -0.115692278982E+04   -0.93955E-05   -0.70138E-05  7444   0.115E-02    0.306E-02
RMM:   8    -0.115692280173E+04   -0.11905E-04   -0.46973E-05  7254   0.943E-03
   7 F= -.11569228E+04 E0= -.11569228E+04  d E =-.284054E-01  mag=    14.0000
       N       E                     dE             d eps       ncg     rms          rms(c)
DAV:   1    -0.115691095973E+04    0.11830E-01   -0.94785E+00 12704   0.350E+00    0.122E+00
RMM:   2    -0.115694196639E+04   -0.31007E-01   -0.23669E-01 12868   0.629E-01    0.709E-01
RMM:   3    -0.115694440276E+04   -0.24364E-02   -0.13274E-02 13595   0.193E-01    0.354E-01
RMM:   4    -0.115694377714E+04    0.62562E-03   -0.30457E-03 15413   0.595E-02    0.185E-01
RMM:   5    -0.115694364285E+04    0.13429E-03   -0.11103E-03 12836   0.320E-02    0.669E-02
RMM:   6    -0.115694365858E+04   -0.15729E-04   -0.15226E-04  7972   0.162E-02    0.402E-02
RMM:   7    -0.115694366798E+04   -0.94021E-05   -0.69542E-05  7388   0.115E-02    0.269E-02
RMM:   8    -0.115694368358E+04   -0.15597E-04   -0.54389E-05  7244   0.996E-03
   8 F= -.11569437E+04 E0= -.11569437E+04  d E =-.208819E-01  mag=    14.0000
       N       E                     dE             d eps       ncg     rms          rms(c)
DAV:   1    -0.115693961554E+04    0.40524E-02   -0.59499E+00 12720   0.281E+00    0.742E-01
RMM:   2    -0.115695538437E+04   -0.15769E-01   -0.14878E-01 12736   0.498E-01    0.442E-01
RMM:   3    -0.115695611766E+04   -0.73329E-03   -0.88034E-03 13339   0.157E-01    0.253E-01
RMM:   4    -0.115695577868E+04    0.33898E-03   -0.18364E-03 15178   0.468E-02    0.137E-01
RMM:   5    -0.115695570860E+04    0.70089E-04   -0.62337E-04 11471   0.247E-02    0.476E-02
RMM:   6    -0.115695572042E+04   -0.11829E-04   -0.94939E-05  7433   0.139E-02    0.243E-02
RMM:   7    -0.115695572981E+04   -0.93875E-05   -0.49286E-05  7240   0.991E-03    0.187E-02
RMM:   8    -0.115695574040E+04   -0.10586E-04   -0.37750E-05  7114   0.861E-03
   9 F= -.11569557E+04 E0= -.11569557E+04  d E =-.120568E-01  mag=    14.0000
       N       E                     dE             d eps       ncg     rms          rms(c)
DAV:   1    -0.115695366467E+04    0.20651E-02   -0.42538E+00 12808   0.238E+00    0.539E-01
RMM:   2    -0.115696391716E+04   -0.10252E-01   -0.10579E-01 12709   0.419E-01    0.331E-01
RMM:   3    -0.115696419445E+04   -0.27729E-03   -0.62828E-03 13183   0.133E-01    0.212E-01
RMM:   4    -0.115696398224E+04    0.21221E-03   -0.12000E-03 14227   0.387E-02    0.126E-01
RMM:   5    -0.115696391700E+04    0.65234E-04   -0.43010E-04  9914   0.218E-02    0.433E-02
RMM:   6    -0.115696393017E+04   -0.13167E-04   -0.82917E-05  7307   0.137E-02    0.234E-02
RMM:   7    -0.115696393832E+04   -0.81521E-05   -0.43885E-05  7166   0.958E-03    0.185E-02
RMM:   8    -0.115696394527E+04   -0.69468E-05   -0.29333E-05  7012   0.797E-03
  10 F= -.11569639E+04 E0= -.11569639E+04  d E =-.820487E-02  mag=    14.0000
       N       E                     dE             d eps       ncg     rms          rms(c)
DAV:   1    -0.115696092087E+04    0.30175E-02   -0.35010E+00 12744   0.216E+00    0.528E-01
RMM:   2    -0.115696995397E+04   -0.90331E-02   -0.86344E-02 12695   0.377E-01    0.305E-01
RMM:   3    -0.115697029543E+04   -0.34146E-03   -0.48583E-03 13001   0.122E-01    0.174E-01
RMM:   4    -0.115697012514E+04    0.17030E-03   -0.10260E-03 13551   0.364E-02    0.954E-02
RMM:   5    -0.115697009332E+04    0.31813E-04   -0.32300E-04  8997   0.204E-02    0.387E-02
RMM:   6    -0.115697010333E+04   -0.10001E-04   -0.68623E-05  7241   0.129E-02    0.155E-02
RMM:   7    -0.115697011142E+04   -0.80893E-05   -0.40069E-05  7123   0.909E-03    0.117E-02
RMM:   8    -0.115697011813E+04   -0.67150E-05   -0.27963E-05  6906   0.748E-03
  11 F= -.11569701E+04 E0= -.11569701E+04  d E =-.617286E-02  mag=    14.0000
       N       E                     dE             d eps       ncg     rms          rms(c)
DAV:   1    -0.115696641285E+04    0.36986E-02   -0.33847E+00 12720   0.213E+00    0.490E-01
RMM:   2    -0.115697490862E+04   -0.84958E-02   -0.83254E-02 12682   0.370E-01    0.282E-01
RMM:   3    -0.115697518506E+04   -0.27644E-03   -0.47009E-03 13022   0.120E-01    0.164E-01
RMM:   4    -0.115697502562E+04    0.15945E-03   -0.96625E-04 13292   0.356E-02    0.906E-02
RMM:   5    -0.115697499430E+04    0.31317E-04   -0.30903E-04  8914   0.201E-02    0.358E-02
RMM:   6    -0.115697500393E+04   -0.96254E-05   -0.65517E-05  7219   0.127E-02    0.152E-02
RMM:   7    -0.115697501147E+04   -0.75435E-05   -0.38927E-05  7094   0.882E-03    0.113E-02
RMM:   8    -0.115697501838E+04   -0.69151E-05   -0.27703E-05  6895   0.747E-03
  12 F= -.11569750E+04 E0= -.11569750E+04  d E =-.490025E-02  mag=    14.0000
       N       E                     dE             d eps       ncg     rms          rms(c)
DAV:   1    -0.115697289163E+04    0.21198E-02   -0.22609E+00 12888   0.174E+00    0.372E-01
RMM:   2    -0.115697832805E+04   -0.54364E-02   -0.55439E-02 12696   0.302E-01    0.222E-01
RMM:   3    -0.115697844053E+04   -0.11249E-03   -0.30882E-03 12912   0.974E-02    0.137E-01
RMM:   4    -0.115697833505E+04    0.10548E-03   -0.58731E-04 11136   0.287E-02    0.827E-02
RMM:   5    -0.115697830729E+04    0.27760E-04   -0.20678E-04  7830   0.183E-02    0.286E-02
RMM:   6    -0.115697831756E+04   -0.10273E-04   -0.58211E-05  7171   0.119E-02    0.143E-02
RMM:   7    -0.115697832329E+04   -0.57251E-05   -0.32636E-05  6988   0.822E-03    0.123E-02
RMM:   8    -0.115697832818E+04   -0.48869E-05   -0.21238E-05  6754   0.692E-03
  13 F= -.11569783E+04 E0= -.11569783E+04  d E =-.330979E-02  mag=    14.0000
       N       E                     dE             d eps       ncg     rms          rms(c)
DAV:   1    -0.115697745067E+04    0.87262E-03   -0.12486E+00 12976   0.129E+00    0.265E-01
RMM:   2    -0.115698043747E+04   -0.29868E-02   -0.30768E-02 12773   0.225E-01    0.157E-01
RMM:   3    -0.115698048272E+04   -0.45254E-04   -0.16701E-03 12317   0.720E-02    0.977E-02
RMM:   4    -0.115698042562E+04    0.57099E-04   -0.30651E-04  8770   0.221E-02    0.573E-02
RMM:   5    -0.115698042021E+04    0.54079E-05   -0.11056E-04  7254   0.149E-02    0.218E-02
RMM:   6    -0.115698042821E+04   -0.79972E-05   -0.39530E-05  7047   0.962E-03    0.105E-02
RMM:   7    -0.115698043367E+04   -0.54631E-05   -0.23745E-05  6803   0.686E-03    0.975E-03
RMM:   8    -0.115698043829E+04   -0.46147E-05   -0.15294E-05  6481   0.581E-03
  14 F= -.11569804E+04 E0= -.11569804E+04  d E =-.211011E-02  mag=    14.0000
       N       E                     dE             d eps       ncg     rms          rms(c)
DAV:   1    -0.115697973478E+04    0.69889E-03   -0.91219E-01 12768   0.110E+00    0.229E-01
RMM:   2    -0.115698192403E+04   -0.21893E-02   -0.22243E-02 12851   0.190E-01    0.133E-01
RMM:   3    -0.115698195265E+04   -0.28617E-04   -0.11467E-03 11535   0.605E-02    0.802E-02
RMM:   4    -0.115698191056E+04    0.42087E-04   -0.21290E-04  7801   0.195E-02    0.454E-02
RMM:   5    -0.115698191123E+04   -0.66949E-06   -0.84274E-05  7157   0.131E-02    0.220E-02
RMM:   6    -0.115698191792E+04   -0.66913E-05   -0.32382E-05  6969   0.865E-03    0.118E-02
RMM:   7    -0.115698192266E+04   -0.47338E-05   -0.19387E-05  6666   0.621E-03    0.107E-02
RMM:   8    -0.115698192729E+04   -0.46374E-05   -0.12758E-05  6166   0.533E-03
  15 F= -.11569819E+04 E0= -.11569819E+04  d E =-.148901E-02  mag=    14.0000
       N       E                     dE             d eps       ncg     rms          rms(c)
DAV:   1    -0.115698187867E+04    0.43985E-04   -0.42544E-01 12984   0.757E-01    0.151E-01
RMM:   2    -0.115698288847E+04   -0.10098E-02   -0.10439E-02 12873   0.129E-01    0.899E-02
RMM:   3    -0.115698288955E+04   -0.10846E-05   -0.47746E-04  9291   0.412E-02    0.550E-02
RMM:   4    -0.115698287293E+04    0.16623E-04   -0.10671E-04  7157   0.148E-02    0.307E-02
RMM:   5    -0.115698287829E+04   -0.53644E-05   -0.48336E-05  7022   0.968E-03    0.169E-02
RMM:   6    -0.115698288302E+04   -0.47322E-05   -0.19571E-05  6808   0.667E-03    0.103E-02
RMM:   7    -0.115698288690E+04   -0.38749E-05   -0.12062E-05  6245   0.489E-03    0.922E-03
RMM:   8    -0.115698289109E+04   -0.41904E-05   -0.83277E-06  5685   0.430E-03
  16 F= -.11569829E+04 E0= -.11569829E+04  d E =-.963795E-03  mag=    14.0000
       N       E                     dE             d eps       ncg     rms          rms(c)
DAV:   1    -0.115698275245E+04    0.13444E-03   -0.40942E-01 12688   0.741E-01    0.149E-01
RMM:   2    -0.115698372965E+04   -0.97720E-03   -0.10001E-02 12753   0.127E-01    0.864E-02
RMM:   3    -0.115698373621E+04   -0.65567E-05   -0.46727E-04  9306   0.411E-02    0.532E-02
RMM:   4    -0.115698372163E+04    0.14578E-04   -0.10340E-04  7134   0.142E-02    0.298E-02
RMM:   5    -0.115698372712E+04   -0.54825E-05   -0.44583E-05  6981   0.942E-03    0.174E-02
RMM:   6    -0.115698373208E+04   -0.49635E-05   -0.18775E-05  6773   0.645E-03    0.104E-02
RMM:   7    -0.115698373616E+04   -0.40791E-05   -0.11287E-05  5990   0.476E-03    0.950E-03
RMM:   8    -0.115698374082E+04   -0.46644E-05   -0.86306E-06  5650   0.418E-03
  17 F= -.11569837E+04 E0= -.11569837E+04  d E =-.849733E-03  mag=    14.0000
       N       E                     dE             d eps       ncg     rms          rms(c)
DAV:   1    -0.115698337253E+04    0.36363E-03   -0.53019E-01 12768   0.843E-01    0.166E-01
RMM:   2    -0.115698462504E+04   -0.12525E-02   -0.12923E-02 12765   0.144E-01    0.979E-02
RMM:   3    -0.115698463077E+04   -0.57333E-05   -0.61078E-04 10003   0.465E-02    0.600E-02
RMM:   4    -0.115698461034E+04    0.20435E-04   -0.12852E-04  7250   0.157E-02    0.328E-02
RMM:   5    -0.115698461680E+04   -0.64622E-05   -0.54054E-05  7034   0.104E-02    0.149E-02
RMM:   6    -0.115698462262E+04   -0.58234E-05   -0.23435E-05  6839   0.692E-03    0.106E-02
RMM:   7    -0.115698462717E+04   -0.45497E-05   -0.13312E-05  6398   0.505E-03    0.958E-03
RMM:   8    -0.115698463261E+04   -0.54393E-05   -0.97341E-06  5783   0.445E-03
  18 F= -.11569846E+04 E0= -.11569846E+04  d E =-.891788E-03  mag=    14.0000
       N       E                     dE             d eps       ncg     rms          rms(c)
DAV:   1    -0.115698449970E+04    0.12748E-03   -0.35419E-01 12680   0.690E-01    0.132E-01
RMM:   2    -0.115698533629E+04   -0.83660E-03   -0.86744E-03 12821   0.117E-01    0.788E-02
RMM:   3    -0.115698533411E+04    0.21797E-05   -0.37553E-04  8700   0.376E-02    0.494E-02
RMM:   4    -0.115698532476E+04    0.93518E-05   -0.91534E-05  7101   0.134E-02    0.280E-02
RMM:   5    -0.115698533237E+04   -0.76099E-05   -0.38688E-05  6955   0.891E-03    0.154E-02
RMM:   6    -0.115698533797E+04   -0.56038E-05   -0.17103E-05  6676   0.604E-03    0.103E-02
RMM:   7    -0.115698534276E+04   -0.47810E-05   -0.10280E-05  5811   0.465E-03    0.962E-03
RMM:   8    -0.115698534965E+04   -0.68951E-05   -0.95548E-06  5609   0.421E-03
  19 F= -.11569853E+04 E0= -.11569853E+04  d E =-.717040E-03  mag=    14.0000
