       N       E                     dE             d eps       ncg     rms          rms(c)
DAV:   1    -0.115726534221E+04   -0.11573E+04   -0.32869E-06  7696   0.245E-03    0.240E-03
RMM:   2    -0.115726534233E+04   -0.12170E-06   -0.56729E-07  2854   0.209E-03    0.238E-03
RMM:   3    -0.115726534236E+04   -0.27532E-07   -0.38780E-08  1141   0.155E-03    0.102E-03
RMM:   4    -0.115726534241E+04   -0.51514E-07   -0.39130E-08   936   0.157E-03    0.821E-04
RMM:   5    -0.115726534245E+04   -0.40280E-07   -0.49770E-08   840   0.159E-03    0.805E-04
RMM:   6    -0.115726534253E+04   -0.80327E-07   -0.14231E-07  1032   0.169E-03    0.607E-04
RMM:   7    -0.115726534257E+04   -0.43030E-07   -0.10772E-07   912   0.164E-03    0.595E-04
RMM:   8    -0.115726534261E+04   -0.37311E-07   -0.95903E-08   896   0.165E-03
   1 F= -.11572653E+04 E0= -.11572653E+04  d E =-.115727E+04  mag=    14.0000
       N       E                     dE             d eps       ncg     rms          rms(c)
DAV:   1    -0.115726536313E+04   -0.20556E-04   -0.29357E-01 12512   0.626E-01    0.198E-01
RMM:   2    -0.115726596157E+04   -0.59844E-03   -0.97789E-03 12292   0.128E-01    0.210E-01
RMM:   3    -0.115726589801E+04    0.63552E-04   -0.45509E-04 10497   0.398E-02    0.146E-01
RMM:   4    -0.115726582458E+04    0.73433E-04   -0.27118E-04  9653   0.183E-02    0.772E-02
RMM:   5    -0.115726579732E+04    0.27262E-04   -0.69063E-05  7526   0.124E-02    0.202E-02
RMM:   6    -0.115726579776E+04   -0.43496E-06   -0.17593E-05  6858   0.599E-03    0.148E-02
RMM:   7    -0.115726579833E+04   -0.57471E-06   -0.69267E-06  6006   0.407E-03    0.101E-02
RMM:   8    -0.115726579911E+04   -0.78233E-06   -0.51496E-06  5855   0.315E-03
   2 F= -.11572658E+04 E0= -.11572658E+04  d E =-.456505E-03  mag=    14.0000
       N       E                     dE             d eps       ncg     rms          rms(c)
DAV:   1    -0.115726630456E+04   -0.50623E-03   -0.68084E-02 12272   0.296E-01    0.107E-01
RMM:   2    -0.115726639333E+04   -0.88772E-04   -0.25361E-03 12048   0.638E-02    0.120E-01
RMM:   3    -0.115726636152E+04    0.31806E-04   -0.94314E-05  7278   0.190E-02    0.893E-02
RMM:   4    -0.115726633068E+04    0.30846E-04   -0.91470E-05  7246   0.110E-02    0.498E-02
RMM:   5    -0.115726632102E+04    0.96599E-05   -0.32819E-05  6796   0.770E-03    0.187E-02
RMM:   6    -0.115726632066E+04    0.35710E-06   -0.83644E-06  5830   0.458E-03    0.139E-02
RMM:   7    -0.115726632083E+04   -0.16901E-06   -0.36251E-06  4665   0.292E-03    0.910E-03
RMM:   8    -0.115726632100E+04   -0.17503E-06   -0.20033E-06  4218   0.252E-03
   3 F= -.11572663E+04 E0= -.11572663E+04  d E =-.521892E-03  mag=    14.0000
       N       E                     dE             d eps       ncg     rms          rms(c)
DAV:   1    -0.115726647522E+04   -0.15439E-03   -0.62610E-02 12256   0.292E-01    0.686E-02
RMM:   2    -0.115726661729E+04   -0.14207E-03   -0.16092E-03 12268   0.518E-02    0.514E-02
RMM:   3    -0.115726661421E+04    0.30847E-05   -0.67201E-05  6790   0.177E-02    0.333E-02
RMM:   4    -0.115726661019E+04    0.40137E-05   -0.27494E-05  6597   0.684E-03    0.197E-02
RMM:   5    -0.115726660976E+04    0.42944E-06   -0.86043E-06  5958   0.451E-03    0.984E-03
RMM:   6    -0.115726661019E+04   -0.42965E-06   -0.33447E-06  4724   0.287E-03    0.520E-03
RMM:   7    -0.115726661035E+04   -0.15755E-06   -0.12761E-06  3087   0.246E-03    0.230E-03
RMM:   8    -0.115726661047E+04   -0.11611E-06   -0.54047E-07  2253   0.203E-03
   4 F= -.11572666E+04 E0= -.11572666E+04  d E =-.289462E-03  mag=    14.0000
