       N       E                     dE             d eps       ncg     rms          rms(c)
DAV:   1     0.121048515533E+05    0.12105E+05   -0.42641E+05 12352   0.132E+03
DAV:   2     0.710027602202E+03   -0.11395E+05   -0.10175E+05 12320   0.380E+02
DAV:   3    -0.134714290113E+04   -0.20572E+04   -0.19810E+04 13216   0.168E+02
DAV:   4    -0.149006331188E+04   -0.14292E+03   -0.14039E+03 16232   0.469E+01
DAV:   5    -0.149960872062E+04   -0.95454E+01   -0.94898E+01 22088   0.112E+01    0.182E+02
RMM:   6    -0.116225554537E+04    0.33735E+03   -0.16463E+03 12570   0.363E+01    0.134E+02
RMM:   7    -0.114448782288E+04    0.17768E+02   -0.61513E+01 12816   0.123E+01    0.773E+01
RMM:   8    -0.114724759325E+04   -0.27598E+01   -0.21295E+01 14021   0.505E+00    0.371E+01
RMM:   9    -0.115135000806E+04   -0.41024E+01   -0.88341E+00 12907   0.361E+00    0.176E+01
RMM:  10    -0.115256111190E+04   -0.12111E+01   -0.27255E+00 14154   0.199E+00    0.103E+01
RMM:  11    -0.115350194960E+04   -0.94084E+00   -0.10087E+00 15380   0.992E-01    0.711E+00
RMM:  12    -0.115448836022E+04   -0.98641E+00   -0.96897E-01 13684   0.101E+00    0.530E+00
RMM:  13    -0.115479813896E+04   -0.30978E+00   -0.35468E-01 14825   0.620E-01    0.399E+00
RMM:  14    -0.115505938110E+04   -0.26124E+00   -0.18184E-01 14608   0.390E-01    0.209E+00
RMM:  15    -0.115524031902E+04   -0.18094E+00   -0.17751E-01 13613   0.417E-01    0.103E+00
RMM:  16    -0.115527297591E+04   -0.32657E-01   -0.62496E-02 14611   0.285E-01    0.684E-01
RMM:  17    -0.115527996675E+04   -0.69908E-02   -0.19214E-02 16626   0.120E-01    0.478E-01
RMM:  18    -0.115528624382E+04   -0.62771E-02   -0.11722E-02 14805   0.108E-01    0.321E-01
RMM:  19    -0.115528934444E+04   -0.31006E-02   -0.40473E-03 12823   0.644E-02    0.198E-01
RMM:  20    -0.115529225324E+04   -0.29088E-02   -0.23715E-03 12026   0.479E-02    0.206E-01
RMM:  21    -0.115529601409E+04   -0.37608E-02   -0.25332E-03 11690   0.511E-02    0.214E-01
RMM:  22    -0.115529642861E+04   -0.41452E-03   -0.84550E-04 10419   0.220E-02    0.219E-01
RMM:  23    -0.115529459556E+04    0.18330E-02   -0.60058E-04 10011   0.266E-02    0.240E-01
RMM:  24    -0.115528668939E+04    0.79062E-02   -0.64828E-03 11071   0.909E-02    0.329E-01
RMM:  25    -0.115527158460E+04    0.15105E-01   -0.25877E-02 11765   0.177E-01    0.534E-01
RMM:  26    -0.115527389897E+04   -0.23144E-02   -0.31443E-03 10910   0.450E-02    0.516E-01
RMM:  27    -0.115527550083E+04   -0.16019E-02   -0.27261E-04  8673   0.251E-02    0.490E-01
RMM:  28    -0.115527834836E+04   -0.28475E-02   -0.90584E-04  9266   0.359E-02    0.444E-01
RMM:  29    -0.115528996609E+04   -0.11618E-01   -0.16048E-02 11497   0.150E-01    0.390E-01
RMM:  30    -0.115529384988E+04   -0.38838E-02   -0.50957E-03 11217   0.691E-02    0.395E-01
RMM:  31    -0.115529416447E+04   -0.31459E-03   -0.10110E-03  8990   0.200E-02    0.405E-01
RMM:  32    -0.115529406429E+04    0.10018E-03   -0.76485E-05  7858   0.106E-02    0.401E-01
RMM:  33    -0.115529408806E+04   -0.23765E-04   -0.26309E-05  7059   0.579E-03
   1 F= -.11552941E+04 E0= -.11552941E+04  d E =-.115529E+04  mag=    13.9964
       N       E                     dE             d eps       ncg     rms          rms(c)
DAV:   1    -0.111271171481E+04    0.42582E+02   -0.17912E+03 13144   0.363E+01    0.351E+01
RMM:   2    -0.115273930838E+04   -0.40028E+02   -0.13263E+02 13167   0.110E+01    0.477E+01
RMM:   3    -0.115458093998E+04   -0.18416E+01   -0.78996E+00 12913   0.377E+00    0.140E+01
RMM:   4    -0.115473002957E+04   -0.14909E+00   -0.26115E+00 14245   0.151E+00    0.100E+01
RMM:   5    -0.115464942363E+04    0.80606E-01   -0.51115E-01 14141   0.590E-01    0.444E+00
RMM:   6    -0.115468373953E+04   -0.34316E-01   -0.21760E-01 14039   0.446E-01    0.213E+00
RMM:   7    -0.115469824778E+04   -0.14508E-01   -0.43568E-02 17370   0.171E-01    0.841E-01
RMM:   8    -0.115470764811E+04   -0.94003E-02   -0.17852E-02 16690   0.101E-01    0.620E-01
RMM:   9    -0.115472077350E+04   -0.13125E-01   -0.12710E-02 14043   0.107E-01    0.408E-01
RMM:  10    -0.115473136634E+04   -0.10593E-01   -0.92103E-03 13209   0.944E-02    0.343E-01
RMM:  11    -0.115473892943E+04   -0.75631E-02   -0.55340E-03 13088   0.675E-02    0.324E-01
RMM:  12    -0.115475036860E+04   -0.11439E-01   -0.69081E-03 11621   0.841E-02    0.306E-01
RMM:  13    -0.115478029120E+04   -0.29923E-01   -0.49355E-02 11795   0.249E-01    0.270E-01
RMM:  14    -0.115478399712E+04   -0.37059E-02   -0.75822E-03 12049   0.795E-02    0.279E-01
RMM:  15    -0.115480108932E+04   -0.17092E-01   -0.20766E-02 11295   0.150E-01    0.222E-01
RMM:  16    -0.115481087718E+04   -0.97879E-02   -0.15551E-02 11113   0.121E-01    0.220E-01
RMM:  17    -0.115482266750E+04   -0.11790E-01   -0.97719E-02 11955   0.348E-01    0.312E-01
RMM:  18    -0.115482885913E+04   -0.61916E-02   -0.10114E-02 11248   0.131E-01    0.157E-01
RMM:  19    -0.115483570374E+04   -0.68446E-02   -0.13297E-02 10916   0.107E-01    0.135E-01
RMM:  20    -0.115484034680E+04   -0.46431E-02   -0.12378E-02 10801   0.106E-01    0.811E-02
RMM:  21    -0.115484297997E+04   -0.26332E-02   -0.12089E-02 10745   0.101E-01    0.548E-02
RMM:  22    -0.115484400733E+04   -0.10274E-02   -0.10564E-02 10732   0.954E-02    0.455E-02
RMM:  23    -0.115484439231E+04   -0.38498E-03   -0.11941E-03  9445   0.332E-02    0.364E-02
RMM:  24    -0.115484463602E+04   -0.24371E-03   -0.13609E-03  8857   0.326E-02    0.152E-02
RMM:  25    -0.115484466560E+04   -0.29578E-04   -0.19227E-04  7622   0.120E-02
   2 F= -.11548447E+04 E0= -.11548447E+04  d E =0.449422E+00  mag=    14.0000
       N       E                     dE             d eps       ncg     rms          rms(c)
DAV:   1    -0.114718220321E+04    0.76624E+01   -0.33248E+02 13600   0.156E+01    0.183E+01
RMM:   2    -0.115636875380E+04   -0.91866E+01   -0.21776E+01 13355   0.480E+00    0.238E+01
RMM:   3    -0.115642691828E+04   -0.58164E-01   -0.15919E+00 12926   0.172E+00    0.794E+00
RMM:   4    -0.115638276161E+04    0.44157E-01   -0.53397E-01 13558   0.705E-01    0.667E+00
RMM:   5    -0.115635287485E+04    0.29887E-01   -0.18721E-01 13330   0.376E-01    0.216E+00
RMM:   6    -0.115635621396E+04   -0.33391E-02   -0.31350E-02 13656   0.182E-01    0.887E-01
RMM:   7    -0.115635688764E+04   -0.67368E-03   -0.67187E-03 15632   0.644E-02    0.608E-01
RMM:   8    -0.115635691574E+04   -0.28102E-04   -0.21092E-03 13206   0.421E-02    0.192E-01
RMM:   9    -0.115635698945E+04   -0.73714E-04   -0.60011E-04 11133   0.242E-02
   3 F= -.11563570E+04 E0= -.11563570E+04  d E =-.151232E+01  mag=    14.0000
       N       E                     dE             d eps       ncg     rms          rms(c)
DAV:   1    -0.115646413382E+04   -0.10722E+00   -0.49176E+01 13376   0.691E+00    0.415E+00
RMM:   2    -0.115666885537E+04   -0.20472E+00   -0.13946E+00 12452   0.142E+00    0.289E+00
RMM:   3    -0.115668850566E+04   -0.19650E-01   -0.81664E-02 13523   0.409E-01    0.173E+00
RMM:   4    -0.115668249359E+04    0.60121E-02   -0.19073E-02 13111   0.150E-01    0.821E-01
RMM:   5    -0.115668167044E+04    0.82314E-03   -0.76350E-03 12832   0.870E-02    0.191E-01
RMM:   6    -0.115668163778E+04    0.32668E-04   -0.10284E-03 11165   0.373E-02    0.192E-01
RMM:   7    -0.115668164842E+04   -0.10640E-04   -0.26580E-04  8872   0.136E-02    0.885E-02
RMM:   8    -0.115668166030E+04   -0.11881E-04   -0.15228E-04  8240   0.134E-02
   4 F= -.11566817E+04 E0= -.11566817E+04  d E =-.324671E+00  mag=    14.0000
       N       E                     dE             d eps       ncg     rms          rms(c)
DAV:   1    -0.115667271536E+04    0.89331E-02   -0.28568E+01 12968   0.507E+00    0.319E+00
RMM:   2    -0.115680894201E+04   -0.13623E+00   -0.76712E-01 12543   0.103E+00    0.220E+00
RMM:   3    -0.115682351711E+04   -0.14575E-01   -0.48290E-02 13544   0.304E-01    0.131E+00
RMM:   4    -0.115681993559E+04    0.35815E-02   -0.15777E-02 13310   0.124E-01    0.542E-01
RMM:   5    -0.115681948189E+04    0.45370E-03   -0.48114E-03 12597   0.663E-02    0.244E-01
RMM:   6    -0.115681941917E+04    0.62713E-04   -0.62575E-04 10173   0.274E-02    0.199E-01
RMM:   7    -0.115681943169E+04   -0.12515E-04   -0.17505E-04  8385   0.132E-02    0.101E-01
RMM:   8    -0.115681945091E+04   -0.19226E-04   -0.11246E-04  7907   0.131E-02
   5 F= -.11568195E+04 E0= -.11568195E+04  d E =-.137791E+00  mag=    14.0000
       N       E                     dE             d eps       ncg     rms          rms(c)
DAV:   1    -0.115682889070E+04   -0.94590E-02   -0.10663E+01 12800   0.357E+00    0.121E+00
RMM:   2    -0.115685881206E+04   -0.29921E-01   -0.28710E-01 12565   0.699E-01    0.955E-01
RMM:   3    -0.115686025154E+04   -0.14395E-02   -0.19003E-02 13741   0.204E-01    0.643E-01
RMM:   4    -0.115685901206E+04    0.12395E-02   -0.35630E-03 14288   0.658E-02    0.368E-01
RMM:   5    -0.115685869457E+04    0.31749E-03   -0.17842E-03 11957   0.403E-02    0.929E-02
RMM:   6    -0.115685871334E+04   -0.18773E-04   -0.18466E-04  8465   0.206E-02    0.688E-02
RMM:   7    -0.115685872342E+04   -0.10079E-04   -0.70767E-05  7568   0.101E-02    0.415E-02
RMM:   8    -0.115685872845E+04   -0.50304E-05   -0.50590E-05  7367   0.992E-03
   6 F= -.11568587E+04 E0= -.11568587E+04  d E =-.392775E-01  mag=    14.0000
       N       E                     dE             d eps       ncg     rms          rms(c)
DAV:   1    -0.115685496240E+04    0.37610E-02   -0.12817E+01 12720   0.403E+00    0.120E+00
RMM:   2    -0.115689077180E+04   -0.35809E-01   -0.31731E-01 12702   0.731E-01    0.766E-01
RMM:   3    -0.115689297682E+04   -0.22050E-02   -0.19969E-02 13574   0.228E-01    0.438E-01
RMM:   4    -0.115689206955E+04    0.90727E-03   -0.37258E-03 15662   0.670E-02    0.251E-01
RMM:   5    -0.115689178231E+04    0.28724E-03   -0.17002E-03 12985   0.376E-02    0.795E-02
RMM:   6    -0.115689179705E+04   -0.14738E-04   -0.19279E-04  8421   0.188E-02    0.416E-02
RMM:   7    -0.115689180857E+04   -0.11518E-04   -0.77614E-05  7523   0.119E-02    0.298E-02
RMM:   8    -0.115689182054E+04   -0.11972E-04   -0.57701E-05  7325   0.101E-02
   7 F= -.11568918E+04 E0= -.11568918E+04  d E =-.330921E-01  mag=    14.0000
       N       E                     dE             d eps       ncg     rms          rms(c)
DAV:   1    -0.115688160859E+04    0.10200E-01   -0.11784E+01 12704   0.389E+00    0.111E+00
RMM:   2    -0.115691425740E+04   -0.32649E-01   -0.28881E-01 12773   0.691E-01    0.662E-01
RMM:   3    -0.115691617382E+04   -0.19164E-02   -0.17402E-02 13531   0.216E-01    0.359E-01
RMM:   4    -0.115691545544E+04    0.71837E-03   -0.35093E-03 15830   0.642E-02    0.196E-01
RMM:   5    -0.115691527153E+04    0.18392E-03   -0.13088E-03 13385   0.335E-02    0.690E-02
RMM:   6    -0.115691528943E+04   -0.17897E-04   -0.18494E-04  8250   0.173E-02    0.362E-02
RMM:   7    -0.115691530014E+04   -0.10713E-04   -0.73869E-05  7469   0.119E-02    0.249E-02
RMM:   8    -0.115691531513E+04   -0.14992E-04   -0.65670E-05  7381   0.103E-02
   8 F= -.11569153E+04 E0= -.11569153E+04  d E =-.234946E-01  mag=    14.0000
       N       E                     dE             d eps       ncg     rms          rms(c)
DAV:   1    -0.115691211282E+04    0.31873E-02   -0.59589E+00 12720   0.281E+00    0.753E-01
RMM:   2    -0.115692784516E+04   -0.15732E-01   -0.14662E-01 12787   0.493E-01    0.448E-01
RMM:   3    -0.115692855401E+04   -0.70884E-03   -0.83953E-03 13345   0.157E-01    0.250E-01
RMM:   4    -0.115692822839E+04    0.32562E-03   -0.18438E-03 15095   0.474E-02    0.138E-01
RMM:   5    -0.115692814999E+04    0.78398E-04   -0.65216E-04 11577   0.252E-02    0.462E-02
RMM:   6    -0.115692816197E+04   -0.11987E-04   -0.98583E-05  7501   0.141E-02    0.268E-02
RMM:   7    -0.115692817079E+04   -0.88145E-05   -0.52090E-05  7244   0.988E-03    0.198E-02
RMM:   8    -0.115692818084E+04   -0.10051E-04   -0.37682E-05  7100   0.870E-03
   9 F= -.11569282E+04 E0= -.11569282E+04  d E =-.128657E-01  mag=    14.0000
       N       E                     dE             d eps       ncg     rms          rms(c)
DAV:   1    -0.115692601683E+04    0.21540E-02   -0.49684E+00 12760   0.256E+00    0.543E-01
RMM:   2    -0.115693733128E+04   -0.11314E-01   -0.12301E-01 12654   0.456E-01    0.355E-01
RMM:   3    -0.115693757978E+04   -0.24850E-03   -0.77539E-03 13221   0.144E-01    0.250E-01
RMM:   4    -0.115693734806E+04    0.23171E-03   -0.12854E-03 14436   0.403E-02    0.159E-01
RMM:   5    -0.115693721730E+04    0.13077E-03   -0.67621E-04 10884   0.251E-02    0.492E-02
RMM:   6    -0.115693723051E+04   -0.13215E-04   -0.99126E-05  7450   0.155E-02    0.332E-02
RMM:   7    -0.115693723831E+04   -0.77960E-05   -0.46937E-05  7173   0.943E-03    0.195E-02
RMM:   8    -0.115693724527E+04   -0.69605E-05   -0.29781E-05  7039   0.877E-03
  10 F= -.11569372E+04 E0= -.11569372E+04  d E =-.906443E-02  mag=    14.0000
       N       E                     dE             d eps       ncg     rms          rms(c)
DAV:   1    -0.115693440722E+04    0.28311E-02   -0.37019E+00 12776   0.224E+00    0.554E-01
RMM:   2    -0.115694406588E+04   -0.96587E-02   -0.91931E-02 12854   0.390E-01    0.312E-01
RMM:   3    -0.115694440599E+04   -0.34012E-03   -0.49296E-03 13140   0.125E-01    0.174E-01
RMM:   4    -0.115694424408E+04    0.16191E-03   -0.10836E-03 13746   0.377E-02    0.949E-02
RMM:   5    -0.115694421276E+04    0.31324E-04   -0.36027E-04  9184   0.211E-02    0.358E-02
RMM:   6    -0.115694422353E+04   -0.10774E-04   -0.70760E-05  7223   0.132E-02    0.214E-02
RMM:   7    -0.115694423076E+04   -0.72305E-05   -0.39939E-05  7072   0.911E-03    0.151E-02
RMM:   8    -0.115694424012E+04   -0.93565E-05   -0.29633E-05  6973   0.800E-03
  11 F= -.11569442E+04 E0= -.11569442E+04  d E =-.699485E-02  mag=    14.0000
       N       E                     dE             d eps       ncg     rms          rms(c)
DAV:   1    -0.115694251109E+04    0.17197E-02   -0.28012E+00 12696   0.196E+00    0.432E-01
RMM:   2    -0.115694939145E+04   -0.68804E-02   -0.69583E-02 12822   0.341E-01    0.246E-01
RMM:   3    -0.115694954531E+04   -0.15385E-03   -0.37113E-03 13006   0.110E-01    0.145E-01
RMM:   4    -0.115694942421E+04    0.12110E-03   -0.80228E-04 12649   0.331E-02    0.811E-02
RMM:   5    -0.115694940296E+04    0.21251E-04   -0.26090E-04  8259   0.197E-02    0.290E-02
RMM:   6    -0.115694941347E+04   -0.10512E-04   -0.62091E-05  7173   0.126E-02    0.156E-02
RMM:   7    -0.115694942163E+04   -0.81611E-05   -0.38239E-05  7021   0.885E-03    0.121E-02
RMM:   8    -0.115694943086E+04   -0.92290E-05   -0.27454E-05  6933   0.748E-03
  12 F= -.11569494E+04 E0= -.11569494E+04  d E =-.519075E-02  mag=    14.0000
       N       E                     dE             d eps       ncg     rms          rms(c)
DAV:   1    -0.115694859800E+04    0.82364E-03   -0.20047E+00 12768   0.166E+00    0.342E-01
RMM:   2    -0.115695335995E+04   -0.47620E-02   -0.49727E-02 12819   0.288E-01    0.200E-01
RMM:   3    -0.115695342841E+04   -0.68459E-04   -0.26470E-03 12791   0.937E-02    0.125E-01
RMM:   4    -0.115695334939E+04    0.79021E-04   -0.51929E-04 10721   0.278E-02    0.756E-02
RMM:   5    -0.115695332940E+04    0.19991E-04   -0.19161E-04  7550   0.181E-02    0.227E-02
RMM:   6    -0.115695334096E+04   -0.11555E-04   -0.56353E-05  7114   0.121E-02    0.168E-02
RMM:   7    -0.115695334660E+04   -0.56421E-05   -0.33829E-05  6902   0.819E-03    0.128E-02
RMM:   8    -0.115695335397E+04   -0.73755E-05   -0.22371E-05  6774   0.731E-03
  13 F= -.11569534E+04 E0= -.11569534E+04  d E =-.392311E-02  mag=    14.0000
       N       E                     dE             d eps       ncg     rms          rms(c)
DAV:   1    -0.115695307172E+04    0.27488E-03   -0.13301E+00 12824   0.135E+00    0.263E-01
RMM:   2    -0.115695619033E+04   -0.31186E-02   -0.33164E-02 12838   0.234E-01    0.154E-01
RMM:   3    -0.115695620541E+04   -0.15083E-04   -0.16992E-03 12306   0.762E-02    0.964E-02
RMM:   4    -0.115695615057E+04    0.54848E-04   -0.34939E-04  9115   0.236E-02    0.551E-02
RMM:   5    -0.115695614855E+04    0.20155E-05   -0.11928E-04  7222   0.158E-02    0.177E-02
RMM:   6    -0.115695615765E+04   -0.91046E-05   -0.43216E-05  7036   0.103E-02    0.125E-02
RMM:   7    -0.115695616303E+04   -0.53793E-05   -0.26639E-05  6793   0.724E-03    0.108E-02
RMM:   8    -0.115695616917E+04   -0.61404E-05   -0.17821E-05  6652   0.641E-03
  14 F= -.11569562E+04 E0= -.11569562E+04  d E =-.281520E-02  mag=    14.0000
       N       E                     dE             d eps       ncg     rms          rms(c)
DAV:   1    -0.115695569528E+04    0.46776E-03   -0.12977E+00 12672   0.133E+00    0.254E-01
RMM:   2    -0.115695872694E+04   -0.30317E-02   -0.31994E-02 12819   0.228E-01    0.147E-01
RMM:   3    -0.115695873640E+04   -0.94621E-05   -0.16166E-03 12229   0.749E-02    0.913E-02
RMM:   4    -0.115695868338E+04    0.53028E-04   -0.33371E-04  8940   0.230E-02    0.527E-02
RMM:   5    -0.115695868240E+04    0.97918E-06   -0.10996E-04  7211   0.152E-02    0.177E-02
RMM:   6    -0.115695869109E+04   -0.86953E-05   -0.40580E-05  7018   0.988E-03    0.111E-02
RMM:   7    -0.115695869747E+04   -0.63780E-05   -0.25340E-05  6765   0.700E-03    0.100E-02
RMM:   8    -0.115695870328E+04   -0.58120E-05   -0.16876E-05  6491   0.605E-03
  15 F= -.11569587E+04 E0= -.11569587E+04  d E =-.253411E-02  mag=    14.0000
       N       E                     dE             d eps       ncg     rms          rms(c)
DAV:   1    -0.115695876533E+04   -0.67860E-04   -0.73009E-01 12760   0.997E-01    0.185E-01
RMM:   2    -0.115696047562E+04   -0.17103E-02   -0.18043E-02 12873   0.170E-01    0.107E-01
RMM:   3    -0.115696047066E+04    0.49647E-05   -0.85768E-04 10808   0.550E-02    0.675E-02
RMM:   4    -0.115696044221E+04    0.28451E-04   -0.16898E-04  7424   0.181E-02    0.393E-02
RMM:   5    -0.115696044725E+04   -0.50417E-05   -0.73214E-05  7109   0.121E-02    0.153E-02
RMM:   6    -0.115696045394E+04   -0.66949E-05   -0.28785E-05  6917   0.810E-03    0.100E-02
RMM:   7    -0.115696045897E+04   -0.50269E-05   -0.17765E-05  6462   0.572E-03    0.920E-03
RMM:   8    -0.115696046454E+04   -0.55675E-05   -0.12559E-05  6089   0.513E-03
  16 F= -.11569605E+04 E0= -.11569605E+04  d E =-.176126E-02  mag=    14.0000
       N       E                     dE             d eps       ncg     rms          rms(c)
DAV:   1    -0.115696043192E+04    0.27047E-04   -0.77582E-01 12720   0.103E+00    0.184E-01
RMM:   2    -0.115696221278E+04   -0.17809E-02   -0.18981E-02 12742   0.174E-01    0.109E-01
RMM:   3    -0.115696220381E+04    0.89640E-05   -0.90766E-04 11111   0.573E-02    0.691E-02
RMM:   4    -0.115696217296E+04    0.30858E-04   -0.18302E-04  7517   0.181E-02    0.404E-02
RMM:   5    -0.115696217765E+04   -0.46989E-05   -0.70487E-05  7094   0.121E-02    0.164E-02
RMM:   6    -0.115696218394E+04   -0.62824E-05   -0.28423E-05  6922   0.786E-03    0.117E-02
RMM:   7    -0.115696218842E+04   -0.44805E-05   -0.17142E-05  6554   0.577E-03    0.965E-03
RMM:   8    -0.115696219354E+04   -0.51277E-05   -0.11923E-05  6065   0.502E-03
  17 F= -.11569622E+04 E0= -.11569622E+04  d E =-.172901E-02  mag=    14.0000
       N       E                     dE             d eps       ncg     rms          rms(c)
DAV:   1    -0.115696226129E+04   -0.72873E-04   -0.59152E-01 12808   0.895E-01    0.157E-01
RMM:   2    -0.115696362147E+04   -0.13602E-02   -0.14516E-02 12771   0.151E-01    0.925E-02
RMM:   3    -0.115696360995E+04    0.11523E-04   -0.67120E-04 10194   0.495E-02    0.593E-02
RMM:   4    -0.115696358649E+04    0.23460E-04   -0.14189E-04  7277   0.166E-02    0.340E-02
RMM:   5    -0.115696359330E+04   -0.68168E-05   -0.54549E-05  7055   0.107E-02    0.167E-02
RMM:   6    -0.115696359857E+04   -0.52636E-05   -0.23565E-05  6867   0.714E-03    0.108E-02
RMM:   7    -0.115696360278E+04   -0.42126E-05   -0.14529E-05  6437   0.530E-03    0.963E-03
RMM:   8    -0.115696360720E+04   -0.44183E-05   -0.98323E-06  5844   0.461E-03
  18 F= -.11569636E+04 E0= -.11569636E+04  d E =-.141365E-02  mag=    14.0000
       N       E                     dE             d eps       ncg     rms          rms(c)
DAV:   1    -0.115696366858E+04   -0.65805E-04   -0.54586E-01 12712   0.859E-01    0.146E-01
RMM:   2    -0.115696490116E+04   -0.12326E-02   -0.13279E-02 12610   0.144E-01    0.871E-02
RMM:   3    -0.115696489076E+04    0.10405E-04   -0.63332E-04 10050   0.492E-02    0.563E-02
RMM:   4    -0.115696487110E+04    0.19655E-04   -0.14432E-04  7303   0.159E-02    0.311E-02
RMM:   5    -0.115696487787E+04   -0.67627E-05   -0.45816E-05  7023   0.100E-02    0.124E-02
RMM:   6    -0.115696488289E+04   -0.50194E-05   -0.21617E-05  6829   0.665E-03    0.979E-03
RMM:   7    -0.115696488675E+04   -0.38696E-05   -0.13360E-05  6366   0.509E-03    0.837E-03
RMM:   8    -0.115696489184E+04   -0.50818E-05   -0.10364E-05  5847   0.454E-03
  19 F= -.11569649E+04 E0= -.11569649E+04  d E =-.128464E-02  mag=    14.0000
       N       E                     dE             d eps       ncg     rms          rms(c)
DAV:   1    -0.115696506429E+04   -0.17753E-03   -0.37047E-01 12696   0.706E-01    0.122E-01
RMM:   2    -0.115696590745E+04   -0.84317E-03   -0.90275E-03 12687   0.119E-01    0.726E-02
RMM:   3    -0.115696589656E+04    0.10893E-04   -0.39953E-04  8754   0.394E-02    0.466E-02
RMM:   4    -0.115696588455E+04    0.12009E-04   -0.96159E-05  7108   0.135E-02    0.272E-02
RMM:   5    -0.115696589006E+04   -0.55037E-05   -0.36417E-05  6952   0.881E-03    0.135E-02
RMM:   6    -0.115696589410E+04   -0.40406E-05   -0.16645E-05  6674   0.592E-03    0.958E-03
RMM:   7    -0.115696589742E+04   -0.33190E-05   -0.98279E-06  5775   0.465E-03    0.794E-03
RMM:   8    -0.115696590151E+04   -0.40912E-05   -0.74973E-06  5440   0.398E-03
  20 F= -.11569659E+04 E0= -.11569659E+04  d E =-.100967E-02  mag=    14.0000
       N       E                     dE             d eps       ncg     rms          rms(c)
DAV:   1    -0.115696613875E+04   -0.24133E-03   -0.26920E-01 12736   0.601E-01    0.104E-01
RMM:   2    -0.115696675436E+04   -0.61561E-03   -0.65731E-03 12667   0.101E-01    0.616E-02
RMM:   3    -0.115696674591E+04    0.84509E-05   -0.28265E-04  8143   0.335E-02    0.395E-02
RMM:   4    -0.115696673838E+04    0.75266E-05   -0.75556E-05  7048   0.119E-02    0.229E-02
RMM:   5    -0.115696674341E+04   -0.50274E-05   -0.26006E-05  6879   0.760E-03    0.139E-02
RMM:   6    -0.115696674674E+04   -0.33278E-05   -0.13013E-05  6346   0.518E-03    0.862E-03
RMM:   7    -0.115696674976E+04   -0.30229E-05   -0.76573E-06  5402   0.411E-03    0.754E-03
RMM:   8    -0.115696675307E+04   -0.33065E-05   -0.55960E-06  4892   0.353E-03
  21 F= -.11569668E+04 E0= -.11569668E+04  d E =-.851559E-03  mag=    14.0000
       N       E                     dE             d eps       ncg     rms          rms(c)
DAV:   1    -0.115696687600E+04   -0.12624E-03   -0.33177E-01 12608   0.666E-01    0.115E-01
RMM:   2    -0.115696763375E+04   -0.75775E-03   -0.80605E-03 12711   0.112E-01    0.677E-02
RMM:   3    -0.115696762452E+04    0.92296E-05   -0.35332E-04  8549   0.372E-02    0.433E-02
RMM:   4    -0.115696761385E+04    0.10670E-04   -0.86001E-05  7073   0.128E-02    0.252E-02
RMM:   5    -0.115696761872E+04   -0.48643E-05   -0.30938E-05  6894   0.831E-03    0.128E-02
RMM:   6    -0.115696762220E+04   -0.34811E-05   -0.14859E-05  6502   0.553E-03    0.864E-03
RMM:   7    -0.115696762502E+04   -0.28204E-05   -0.84108E-06  5464   0.439E-03    0.738E-03
RMM:   8    -0.115696762832E+04   -0.32997E-05   -0.62924E-06  5110   0.366E-03
  22 F= -.11569676E+04 E0= -.11569676E+04  d E =-.875255E-03  mag=    14.0000
       N       E                     dE             d eps       ncg     rms          rms(c)
DAV:   1    -0.115696778516E+04   -0.16014E-03   -0.26668E-01 12608   0.595E-01    0.994E-02
RMM:   2    -0.115696838958E+04   -0.60442E-03   -0.64673E-03 12618   0.999E-02    0.595E-02
RMM:   3    -0.115696837990E+04    0.96761E-05   -0.27647E-04  8130   0.331E-02    0.385E-02
RMM:   4    -0.115696837210E+04    0.77956E-05   -0.77311E-05  7046   0.118E-02    0.208E-02
RMM:   5    -0.115696837663E+04   -0.45246E-05   -0.23792E-05  6850   0.739E-03    0.113E-02
RMM:   6    -0.115696837948E+04   -0.28494E-05   -0.12033E-05  6306   0.492E-03    0.797E-03
RMM:   7    -0.115696838199E+04   -0.25092E-05   -0.68857E-06  5306   0.400E-03    0.674E-03
RMM:   8    -0.115696838544E+04   -0.34501E-05   -0.59542E-06  4868   0.349E-03
  23 F= -.11569684E+04 E0= -.11569684E+04  d E =-.757118E-03  mag=    14.0000
       N       E                     dE             d eps       ncg     rms          rms(c)
DAV:   1    -0.115696853033E+04   -0.14834E-03   -0.27259E-01 12520   0.600E-01    0.101E-01
RMM:   2    -0.115696914663E+04   -0.61630E-03   -0.65995E-03 12688   0.101E-01    0.608E-02
RMM:   3    -0.115696913574E+04    0.10891E-04   -0.28126E-04  8197   0.333E-02    0.391E-02
RMM:   4    -0.115696912666E+04    0.90773E-05   -0.78585E-05  7040   0.120E-02    0.194E-02
RMM:   5    -0.115696913119E+04   -0.45342E-05   -0.23963E-05  6832   0.747E-03    0.934E-03
RMM:   6    -0.115696913392E+04   -0.27223E-05   -0.11879E-05  6325   0.487E-03    0.737E-03
RMM:   7    -0.115696913613E+04   -0.22159E-05   -0.66358E-06  5254   0.401E-03    0.615E-03
RMM:   8    -0.115696913946E+04   -0.33283E-05   -0.60509E-06  4935   0.345E-03
  24 F= -.11569691E+04 E0= -.11569691E+04  d E =-.754022E-03  mag=    14.0000
