       N       E                     dE             d eps       ncg     rms          rms(c)
DAV:   1    -0.115720637183E+04   -0.11572E+04   -0.29130E-06  7064   0.299E-03    0.236E-03
RMM:   2    -0.115720637259E+04   -0.76447E-06   -0.13294E-06  2941   0.214E-03    0.238E-03
RMM:   3    -0.115720637283E+04   -0.23648E-06   -0.23280E-07  1546   0.162E-03    0.213E-03
RMM:   4    -0.115720637305E+04   -0.21969E-06   -0.14177E-07  1324   0.165E-03    0.226E-03
RMM:   5    -0.115720637265E+04    0.39781E-06   -0.39817E-08  1172   0.156E-03    0.235E-03
RMM:   6    -0.115720637328E+04   -0.62499E-06   -0.20291E-07  1215   0.166E-03    0.218E-03
RMM:   7    -0.115720637568E+04   -0.24058E-05   -0.61271E-06  3982   0.357E-03    0.237E-03
RMM:   8    -0.115720637650E+04   -0.81405E-06   -0.19443E-06  2102   0.200E-03
   1 F= -.11572064E+04 E0= -.11572064E+04  d E =-.115721E+04  mag=    14.0000
       N       E                     dE             d eps       ncg     rms          rms(c)
DAV:   1    -0.115720662971E+04   -0.25403E-03   -0.49086E-01 12704   0.814E-01    0.226E-01
RMM:   2    -0.115720757066E+04   -0.94095E-03   -0.15335E-02 12317   0.163E-01    0.231E-01
RMM:   3    -0.115720748916E+04    0.81507E-04   -0.78391E-04 11581   0.512E-02    0.158E-01
RMM:   4    -0.115720737055E+04    0.11861E-03   -0.34563E-04 10435   0.214E-02    0.876E-02
RMM:   5    -0.115720733199E+04    0.38563E-04   -0.11038E-04  8198   0.151E-02    0.295E-02
RMM:   6    -0.115720733360E+04   -0.16108E-05   -0.21972E-05  7000   0.787E-03    0.186E-02
RMM:   7    -0.115720733421E+04   -0.61277E-06   -0.96704E-06  6386   0.448E-03    0.140E-02
RMM:   8    -0.115720733470E+04   -0.48761E-06   -0.53498E-06  6233   0.375E-03
   2 F= -.11572073E+04 E0= -.11572073E+04  d E =-.958203E-03  mag=    14.0000
       N       E                     dE             d eps       ncg     rms          rms(c)
DAV:   1    -0.115720809759E+04   -0.76337E-03   -0.10107E-01 12224   0.366E-01    0.123E-01
RMM:   2    -0.115720822971E+04   -0.13213E-03   -0.35040E-03 12218   0.767E-02    0.136E-01
RMM:   3    -0.115720819001E+04    0.39705E-04   -0.13304E-04  7629   0.231E-02    0.958E-02
RMM:   4    -0.115720814837E+04    0.41641E-04   -0.12047E-04  7263   0.133E-02    0.510E-02
RMM:   5    -0.115720813795E+04    0.10423E-04   -0.43102E-05  6896   0.938E-03    0.410E-02
RMM:   6    -0.115720813854E+04   -0.59782E-06   -0.12591E-05  6008   0.557E-03    0.138E-02
RMM:   7    -0.115720813866E+04   -0.11502E-06   -0.51348E-06  5137   0.350E-03    0.117E-02
RMM:   8    -0.115720813885E+04   -0.19457E-06   -0.27353E-06  4709   0.280E-03
   3 F= -.11572081E+04 E0= -.11572081E+04  d E =-.804154E-03  mag=    14.0000
       N       E                     dE             d eps       ncg     rms          rms(c)
DAV:   1    -0.115720840292E+04   -0.26426E-03   -0.87937E-02 12224   0.345E-01    0.779E-02
RMM:   2    -0.115720860728E+04   -0.20437E-03   -0.23100E-03 12680   0.619E-02    0.589E-02
RMM:   3    -0.115720859991E+04    0.73711E-05   -0.90410E-05  6940   0.196E-02    0.368E-02
RMM:   4    -0.115720859250E+04    0.74155E-05   -0.39352E-05  6825   0.826E-03    0.187E-02
RMM:   5    -0.115720859217E+04    0.32634E-06   -0.11369E-05  6408   0.496E-03    0.618E-03
RMM:   6    -0.115720859262E+04   -0.44855E-06   -0.41199E-06  5198   0.321E-03    0.418E-03
RMM:   7    -0.115720859283E+04   -0.21077E-06   -0.19157E-06  3793   0.256E-03    0.246E-03
RMM:   8    -0.115720859294E+04   -0.10959E-06   -0.86887E-07  2795   0.220E-03
   4 F= -.11572086E+04 E0= -.11572086E+04  d E =-.454085E-03  mag=    14.0000
       N       E                     dE             d eps       ncg     rms          rms(c)
DAV:   1    -0.115720880061E+04   -0.20778E-03   -0.14069E-01 12352   0.435E-01    0.885E-02
RMM:   2    -0.115720912991E+04   -0.32930E-03   -0.35084E-03 12817   0.755E-02    0.589E-02
RMM:   3    -0.115720912414E+04    0.57653E-05   -0.13726E-04  7292   0.238E-02    0.366E-02
RMM:   4    -0.115720911669E+04    0.74507E-05   -0.45880E-05  6913   0.938E-03    0.182E-02
RMM:   5    -0.115720911721E+04   -0.51617E-06   -0.16216E-05  6689   0.583E-03    0.994E-03
RMM:   6    -0.115720911790E+04   -0.69237E-06   -0.62143E-06  5799   0.395E-03    0.508E-03
RMM:   7    -0.115720911826E+04   -0.35534E-06   -0.32459E-06  4611   0.294E-03    0.293E-03
RMM:   8    -0.115720911843E+04   -0.17026E-06   -0.16001E-06  3489   0.253E-03
   5 F= -.11572091E+04 E0= -.11572091E+04  d E =-.525487E-03  mag=    14.0000
