       N       E                     dE             d eps       ncg     rms          rms(c)
DAV:   1    -0.116309733101E+04   -0.11631E+04   -0.18064E-05  3728   0.732E-03    0.678E-03
RMM:   2    -0.116309733279E+04   -0.17780E-05   -0.93374E-06  3071   0.464E-03    0.747E-03
RMM:   3    -0.116309733348E+04   -0.68973E-06   -0.40908E-06  2502   0.288E-03    0.355E-03
RMM:   4    -0.116309733412E+04   -0.64349E-06   -0.22656E-06  1990   0.285E-03    0.341E-03
RMM:   5    -0.116309733457E+04   -0.45146E-06   -0.10999E-06  1341   0.217E-03    0.293E-03
RMM:   6    -0.116309733612E+04   -0.15435E-05   -0.18917E-06  1587   0.249E-03    0.298E-03
RMM:   7    -0.116309733751E+04   -0.13966E-05   -0.16243E-06  1490   0.229E-03    0.269E-03
RMM:   8    -0.116309733864E+04   -0.11271E-05   -0.15498E-06  1450   0.223E-03
   1 F= -.11630973E+04 E0= -.11630953E+04  d E =-.116310E+04  mag=     5.9673
       N       E                     dE             d eps       ncg     rms          rms(c)
DAV:   1    -0.116309896565E+04   -0.16281E-02   -0.84791E-01  6400   0.107E+00    0.241E-01
RMM:   2    -0.116310084200E+04   -0.18763E-02   -0.23115E-02  6159   0.192E-01    0.215E-01
RMM:   3    -0.116310076777E+04    0.74230E-04   -0.11093E-03  5959   0.630E-02    0.142E-01
RMM:   4    -0.116310068616E+04    0.81604E-04   -0.37755E-04  5122   0.223E-02    0.949E-02
RMM:   5    -0.116310064529E+04    0.40870E-04   -0.10896E-04  3917   0.157E-02    0.209E-02
RMM:   6    -0.116310064866E+04   -0.33685E-05   -0.33385E-05  3510   0.880E-03    0.123E-02
RMM:   7    -0.116310064967E+04   -0.10116E-05   -0.13758E-05  3414   0.599E-03    0.933E-03
RMM:   8    -0.116310065042E+04   -0.74244E-06   -0.81607E-06  3129   0.431E-03
   2 F= -.11631007E+04 E0= -.11630988E+04  d E =-.331177E-02  mag=     5.9695
       N       E                     dE             d eps       ncg     rms          rms(c)
DAV:   1    -0.116310151653E+04   -0.86686E-03   -0.28925E-01  6384   0.627E-01    0.148E-01
RMM:   2    -0.116310210770E+04   -0.59116E-03   -0.77472E-03  6237   0.112E-01    0.124E-01
RMM:   3    -0.116310206639E+04    0.41303E-04   -0.36353E-04  4794   0.372E-02    0.795E-02
RMM:   4    -0.116310203282E+04    0.33569E-04   -0.15136E-04  3780   0.151E-02    0.461E-02
RMM:   5    -0.116310202342E+04    0.94041E-05   -0.47050E-05  3547   0.988E-03    0.119E-02
RMM:   6    -0.116310202470E+04   -0.12829E-05   -0.15162E-05  3424   0.615E-03    0.991E-03
RMM:   7    -0.116310202554E+04   -0.83509E-06   -0.82815E-06  3109   0.415E-03    0.657E-03
RMM:   8    -0.116310202618E+04   -0.64229E-06   -0.50561E-06  2931   0.368E-03
   3 F= -.11631020E+04 E0= -.11631001E+04  d E =-.137576E-02  mag=     5.9688
       N       E                     dE             d eps       ncg     rms          rms(c)
DAV:   1    -0.116310270710E+04   -0.68157E-03   -0.34892E-01  6392   0.688E-01    0.135E-01
RMM:   2    -0.116310348249E+04   -0.77539E-03   -0.91061E-03  6215   0.117E-01    0.102E-01
RMM:   3    -0.116310345439E+04    0.28104E-04   -0.39253E-04  4640   0.387E-02    0.679E-02
RMM:   4    -0.116310343041E+04    0.23978E-04   -0.13160E-04  3649   0.144E-02    0.461E-02
RMM:   5    -0.116310342332E+04    0.70905E-05   -0.42899E-05  3516   0.977E-03    0.161E-02
RMM:   6    -0.116310342523E+04   -0.19115E-05   -0.17375E-05  3401   0.626E-03    0.104E-02
RMM:   7    -0.116310342607E+04   -0.83529E-06   -0.90988E-06  3206   0.482E-03    0.775E-03
RMM:   8    -0.116310342666E+04   -0.59203E-06   -0.55570E-06  2678   0.357E-03
   4 F= -.11631034E+04 E0= -.11631015E+04  d E =-.140048E-02  mag=     5.9682
       N       E                     dE             d eps       ncg     rms          rms(c)
DAV:   1    -0.116310381491E+04   -0.38884E-03   -0.36467E-01  6400   0.701E-01    0.133E-01
RMM:   2    -0.116310462074E+04   -0.80583E-03   -0.89877E-03  6267   0.117E-01    0.907E-02
RMM:   3    -0.116310460365E+04    0.17088E-04   -0.41578E-04  4546   0.405E-02    0.580E-02
RMM:   4    -0.116310458363E+04    0.20017E-04   -0.11140E-04  3576   0.137E-02    0.320E-02
RMM:   5    -0.116310458335E+04    0.28221E-06   -0.38571E-05  3497   0.922E-03    0.815E-03
RMM:   6    -0.116310458506E+04   -0.17113E-05   -0.15473E-05  3379   0.589E-03    0.625E-03
RMM:   7    -0.116310458602E+04   -0.95801E-06   -0.88676E-06  3064   0.445E-03    0.415E-03
RMM:   8    -0.116310458674E+04   -0.72370E-06   -0.58265E-06  2755   0.360E-03
   5 F= -.11631046E+04 E0= -.11631027E+04  d E =-.116008E-02  mag=     5.9684
       N       E                     dE             d eps       ncg     rms          rms(c)
DAV:   1    -0.116310484018E+04   -0.25417E-03   -0.33089E-01  6352   0.665E-01    0.118E-01
RMM:   2    -0.116310557800E+04   -0.73781E-03   -0.80245E-03  6223   0.110E-01    0.772E-02
RMM:   3    -0.116310556650E+04    0.11499E-04   -0.36331E-04  4349   0.380E-02    0.505E-02
RMM:   4    -0.116310555128E+04    0.15219E-04   -0.97911E-05  3542   0.127E-02    0.326E-02
RMM:   5    -0.116310555147E+04   -0.19018E-06   -0.30160E-05  3461   0.851E-03    0.123E-02
RMM:   6    -0.116310555335E+04   -0.18819E-05   -0.14884E-05  3349   0.553E-03    0.792E-03
RMM:   7    -0.116310555420E+04   -0.84855E-06   -0.81645E-06  3024   0.469E-03    0.603E-03
RMM:   8    -0.116310555476E+04   -0.56121E-06   -0.52231E-06  2441   0.332E-03
   6 F= -.11631056E+04 E0= -.11631036E+04  d E =-.968020E-03  mag=     5.9685
       N       E                     dE             d eps       ncg     rms          rms(c)
DAV:   1    -0.116310565269E+04   -0.98485E-04   -0.40317E-01  6288   0.728E-01    0.125E-01
RMM:   2    -0.116310653710E+04   -0.88441E-03   -0.95928E-03  6239   0.120E-01    0.815E-02
RMM:   3    -0.116310652395E+04    0.13151E-04   -0.45047E-04  4613   0.418E-02    0.531E-02
RMM:   4    -0.116310650586E+04    0.18092E-04   -0.11699E-04  3574   0.139E-02    0.338E-02
RMM:   5    -0.116310650526E+04    0.59520E-06   -0.34485E-05  3494   0.924E-03    0.124E-02
RMM:   6    -0.116310650735E+04   -0.20890E-05   -0.16954E-05  3377   0.578E-03    0.911E-03
RMM:   7    -0.116310650829E+04   -0.94037E-06   -0.90979E-06  3073   0.503E-03    0.634E-03
RMM:   8    -0.116310650893E+04   -0.63892E-06   -0.59957E-06  2540   0.341E-03
   7 F= -.11631065E+04 E0= -.11631046E+04  d E =-.954164E-03  mag=     5.9685
