       N       E                     dE             d eps       ncg     rms          rms(c)
DAV:   1    -0.115722339729E+04   -0.11572E+04   -0.33130E-06  7520   0.386E-03    0.537E-03
RMM:   2    -0.115722339789E+04   -0.59314E-06   -0.21944E-06  4493   0.277E-03    0.785E-03
RMM:   3    -0.115722339805E+04   -0.16019E-06   -0.51876E-07  2113   0.178E-03    0.212E-03
RMM:   4    -0.115722339831E+04   -0.26838E-06   -0.31622E-07  1717   0.183E-03    0.197E-03
RMM:   5    -0.115722339844E+04   -0.12279E-06   -0.16740E-07  1483   0.176E-03    0.177E-03
RMM:   6    -0.115722339908E+04   -0.64082E-06   -0.77917E-07  2063   0.203E-03    0.185E-03
RMM:   7    -0.115722339966E+04   -0.58062E-06   -0.74948E-07  2097   0.201E-03    0.153E-03
RMM:   8    -0.115722340014E+04   -0.48486E-06   -0.83654E-07  2149   0.202E-03
   1 F= -.11572234E+04 E0= -.11572234E+04  d E =-.115722E+04  mag=    14.0000
       N       E                     dE             d eps       ncg     rms          rms(c)
DAV:   1    -0.115722374371E+04   -0.34405E-03   -0.37109E-01 12792   0.710E-01    0.213E-01
RMM:   2    -0.115722439997E+04   -0.65626E-03   -0.11683E-02 12302   0.140E-01    0.204E-01
RMM:   3    -0.115722430523E+04    0.94740E-04   -0.57926E-04 10954   0.448E-02    0.137E-01
RMM:   4    -0.115722418887E+04    0.11636E-03   -0.37900E-04 10486   0.215E-02    0.744E-02
RMM:   5    -0.115722415934E+04    0.29525E-04   -0.78964E-05  7690   0.136E-02    0.286E-02
RMM:   6    -0.115722416085E+04   -0.15096E-05   -0.19966E-05  6959   0.654E-03    0.190E-02
RMM:   7    -0.115722416160E+04   -0.74357E-06   -0.84898E-06  6296   0.458E-03    0.139E-02
RMM:   8    -0.115722416232E+04   -0.72166E-06   -0.52376E-06  6028   0.328E-03
   2 F= -.11572242E+04 E0= -.11572242E+04  d E =-.762175E-03  mag=    14.0000
       N       E                     dE             d eps       ncg     rms          rms(c)
DAV:   1    -0.115722494579E+04   -0.78420E-03   -0.86649E-02 12368   0.336E-01    0.109E-01
RMM:   2    -0.115722503849E+04   -0.92695E-04   -0.30567E-03 12110   0.695E-02    0.117E-01
RMM:   3    -0.115722499525E+04    0.43242E-04   -0.10966E-04  7443   0.203E-02    0.834E-02
RMM:   4    -0.115722495201E+04    0.43235E-04   -0.14020E-04  7430   0.134E-02    0.524E-02
RMM:   5    -0.115722494255E+04    0.94646E-05   -0.33416E-05  6870   0.852E-03    0.259E-02
RMM:   6    -0.115722494202E+04    0.52525E-06   -0.11309E-05  5945   0.447E-03    0.155E-02
RMM:   7    -0.115722494217E+04   -0.14780E-06   -0.48629E-06  5101   0.364E-03    0.108E-02
RMM:   8    -0.115722494244E+04   -0.26739E-06   -0.28600E-06  4484   0.254E-03
   3 F= -.11572249E+04 E0= -.11572249E+04  d E =-.780120E-03  mag=    14.0000
