       N       E                     dE             d eps       ncg     rms          rms(c)
DAV:   1     0.121040133086E+05    0.12104E+05   -0.42636E+05 12344   0.132E+03
DAV:   2     0.718226491723E+03   -0.11386E+05   -0.10175E+05 12296   0.380E+02
DAV:   3    -0.134712917238E+04   -0.20654E+04   -0.19874E+04 13224   0.168E+02
DAV:   4    -0.149067108875E+04   -0.14354E+03   -0.14105E+03 16336   0.470E+01
DAV:   5    -0.150019867630E+04   -0.95276E+01   -0.94782E+01 22160   0.112E+01    0.181E+02
RMM:   6    -0.116123613440E+04    0.33896E+03   -0.16423E+03 12561   0.362E+01    0.131E+02
RMM:   7    -0.114417267399E+04    0.17063E+02   -0.65788E+01 12808   0.127E+01    0.767E+01
RMM:   8    -0.114777458778E+04   -0.36019E+01   -0.22398E+01 14394   0.523E+00    0.375E+01
RMM:   9    -0.115221494047E+04   -0.44404E+01   -0.71822E+00 13157   0.317E+00    0.114E+01
RMM:  10    -0.115377439118E+04   -0.15595E+01   -0.18804E+00 14362   0.146E+00    0.755E+00
RMM:  11    -0.115461328344E+04   -0.83889E+00   -0.81645E-01 16151   0.808E-01    0.471E+00
RMM:  12    -0.115554544116E+04   -0.93216E+00   -0.73564E-01 13651   0.755E-01    0.263E+00
RMM:  13    -0.115589311849E+04   -0.34768E+00   -0.33406E-01 14305   0.569E-01    0.146E+00
RMM:  14    -0.115597138225E+04   -0.78264E-01   -0.13837E-01 15226   0.344E-01    0.733E-01
RMM:  15    -0.115598536660E+04   -0.13984E-01   -0.46963E-02 15395   0.191E-01    0.435E-01
RMM:  16    -0.115598761765E+04   -0.22511E-02   -0.12156E-02 17177   0.953E-02    0.222E-01
RMM:  17    -0.115598831109E+04   -0.69344E-03   -0.43249E-03 15460   0.516E-02    0.941E-02
RMM:  18    -0.115598858581E+04   -0.27472E-03   -0.17784E-03 12055   0.286E-02    0.643E-02
RMM:  19    -0.115598880440E+04   -0.21859E-03   -0.10212E-03 10858   0.218E-02    0.442E-02
RMM:  20    -0.115598899325E+04   -0.18885E-03   -0.65570E-04 10282   0.186E-02    0.380E-02
RMM:  21    -0.115598916011E+04   -0.16686E-03   -0.43633E-04  9767   0.161E-02    0.333E-02
RMM:  22    -0.115598928852E+04   -0.12841E-03   -0.30261E-04  9533   0.134E-02    0.322E-02
RMM:  23    -0.115598954742E+04   -0.25890E-03   -0.51339E-04  9520   0.229E-02    0.277E-02
RMM:  24    -0.115598980328E+04   -0.25587E-03   -0.96227E-04  9688   0.292E-02    0.185E-02
RMM:  25    -0.115598994314E+04   -0.13985E-03   -0.72351E-04  9327   0.239E-02    0.193E-02
RMM:  26    -0.115599001539E+04   -0.72254E-04   -0.41126E-04  8910   0.177E-02
   1 F= -.11559900E+04 E0= -.11559900E+04  d E =-.115599E+04  mag=    14.0001
       N       E                     dE             d eps       ncg     rms          rms(c)
DAV:   1    -0.113509643542E+04    0.20894E+02   -0.78529E+02 14224   0.245E+01    0.239E+01
RMM:   2    -0.115518584684E+04   -0.20089E+02   -0.52914E+01 13169   0.705E+00    0.256E+01
RMM:   3    -0.115588579500E+04   -0.69995E+00   -0.28628E+00 13062   0.224E+00    0.950E+00
RMM:   4    -0.115581087240E+04    0.74923E-01   -0.10164E+00 13481   0.967E-01    0.995E+00
RMM:   5    -0.115577609469E+04    0.34778E-01   -0.17328E-01 14407   0.328E-01    0.510E+00
RMM:   6    -0.115576782329E+04    0.82714E-02   -0.17728E-01 12853   0.418E-01    0.283E+00
RMM:   7    -0.115577006457E+04   -0.22413E-02   -0.21002E-02 15222   0.137E-01    0.645E-01
RMM:   8    -0.115576993025E+04    0.13432E-03   -0.58071E-03 16689   0.538E-02    0.565E-01
RMM:   9    -0.115577001270E+04   -0.82448E-04   -0.18544E-03 13672   0.372E-02    0.109E-01
RMM:  10    -0.115577007620E+04   -0.63499E-04   -0.83967E-04 11254   0.211E-02
   2 F= -.11557701E+04 E0= -.11557701E+04  d E =0.219939E+00  mag=    14.0000
       N       E                     dE             d eps       ncg     rms          rms(c)
DAV:   1    -0.115512208011E+04    0.64793E+00   -0.13333E+02 13592   0.997E+00    0.911E+00
RMM:   2    -0.115646984484E+04   -0.13478E+01   -0.42926E+00 12370   0.227E+00    0.822E+00
RMM:   3    -0.115658332393E+04   -0.11348E+00   -0.28698E-01 12492   0.846E-01    0.325E+00
RMM:   4    -0.115655841434E+04    0.24910E-01   -0.85418E-02 13654   0.277E-01    0.195E+00
RMM:   5    -0.115653987362E+04    0.18541E-01   -0.53400E-02 13033   0.230E-01    0.116E+00
RMM:   6    -0.115653965195E+04    0.22167E-03   -0.14510E-02 13621   0.107E-01    0.467E-01
RMM:   7    -0.115653952427E+04    0.12768E-03   -0.16988E-03 13787   0.384E-02    0.276E-01
RMM:   8    -0.115653951016E+04    0.14111E-04   -0.62603E-04 11865   0.234E-02
   3 F= -.11565395E+04 E0= -.11565395E+04  d E =-.769434E+00  mag=    14.0000
       N       E                     dE             d eps       ncg     rms          rms(c)
DAV:   1    -0.115654854959E+04   -0.90253E-02   -0.19405E+01 13656   0.420E+00    0.298E+00
RMM:   2    -0.115665926084E+04   -0.11071E+00   -0.53346E-01 12343   0.860E-01    0.206E+00
RMM:   3    -0.115667253299E+04   -0.13272E-01   -0.30717E-02 12631   0.281E-01    0.101E+00
RMM:   4    -0.115666896682E+04    0.35662E-02   -0.10487E-02 13150   0.103E-01    0.589E-01
RMM:   5    -0.115666821131E+04    0.75551E-03   -0.33631E-03 12274   0.616E-02    0.166E-01
RMM:   6    -0.115666823542E+04   -0.24109E-04   -0.52017E-04 10594   0.223E-02    0.103E-01
RMM:   7    -0.115666824392E+04   -0.84991E-05   -0.13127E-04  8235   0.131E-02    0.668E-02
RMM:   8    -0.115666826076E+04   -0.16840E-04   -0.85410E-05  7798   0.112E-02
   4 F= -.11566683E+04 E0= -.11566683E+04  d E =-.128751E+00  mag=    14.0000
       N       E                     dE             d eps       ncg     rms          rms(c)
DAV:   1    -0.115662565950E+04    0.42584E-01   -0.16937E+01 12968   0.405E+00    0.271E+00
RMM:   2    -0.115671740947E+04   -0.91750E-01   -0.42350E-01 12495   0.779E-01    0.175E+00
RMM:   3    -0.115672891139E+04   -0.11502E-01   -0.23543E-02 12936   0.247E-01    0.938E-01
RMM:   4    -0.115672689641E+04    0.20150E-02   -0.99673E-03 13379   0.994E-02    0.466E-01
RMM:   5    -0.115672679849E+04    0.97917E-04   -0.22905E-03 12176   0.460E-02    0.250E-01
RMM:   6    -0.115672679700E+04    0.14908E-05   -0.27432E-04  8861   0.167E-02    0.824E-02
RMM:   7    -0.115672679343E+04    0.35729E-05   -0.16177E-04  7960   0.139E-02    0.708E-02
RMM:   8    -0.115672680516E+04   -0.11725E-04   -0.89210E-05  7483   0.125E-02
   5 F= -.11567268E+04 E0= -.11567268E+04  d E =-.585444E-01  mag=    14.0000
       N       E                     dE             d eps       ncg     rms          rms(c)
DAV:   1    -0.115672721580E+04   -0.42237E-03   -0.10234E+01 12848   0.353E+00    0.109E+00
RMM:   2    -0.115675562590E+04   -0.28410E-01   -0.24550E-01 12609   0.626E-01    0.724E-01
RMM:   3    -0.115675715372E+04   -0.15278E-02   -0.13637E-02 13079   0.200E-01    0.399E-01
RMM:   4    -0.115675626475E+04    0.88896E-03   -0.36908E-03 14415   0.644E-02    0.204E-01
RMM:   5    -0.115675609299E+04    0.17176E-03   -0.12553E-03 12442   0.344E-02    0.782E-02
RMM:   6    -0.115675609958E+04   -0.65896E-05   -0.18148E-04  8502   0.164E-02    0.499E-02
RMM:   7    -0.115675610526E+04   -0.56769E-05   -0.85324E-05  7470   0.107E-02    0.301E-02
RMM:   8    -0.115675611357E+04   -0.83106E-05   -0.59246E-05  7289   0.966E-03
   6 F= -.11567561E+04 E0= -.11567561E+04  d E =-.293084E-01  mag=    14.0000
       N       E                     dE             d eps       ncg     rms          rms(c)
DAV:   1    -0.115675273489E+04    0.33704E-02   -0.12742E+01 12688   0.397E+00    0.899E-01
RMM:   2    -0.115678297603E+04   -0.30241E-01   -0.30708E-01 12640   0.701E-01    0.613E-01
RMM:   3    -0.115678370234E+04   -0.72631E-03   -0.17432E-02 13228   0.215E-01    0.400E-01
RMM:   4    -0.115678289609E+04    0.80625E-03   -0.35799E-03 15174   0.641E-02    0.224E-01
RMM:   5    -0.115678272109E+04    0.17500E-03   -0.14658E-03 12713   0.350E-02    0.644E-02
RMM:   6    -0.115678273201E+04   -0.10920E-04   -0.19926E-04  8618   0.171E-02    0.488E-02
RMM:   7    -0.115678273970E+04   -0.76871E-05   -0.83884E-05  7501   0.104E-02    0.260E-02
RMM:   8    -0.115678274480E+04   -0.51060E-05   -0.67698E-05  7311   0.986E-03
   7 F= -.11567827E+04 E0= -.11567827E+04  d E =-.266312E-01  mag=    14.0000
       N       E                     dE             d eps       ncg     rms          rms(c)
DAV:   1    -0.115677611676E+04    0.66229E-02   -0.11238E+01 12672   0.374E+00    0.819E-01
RMM:   2    -0.115680250582E+04   -0.26389E-01   -0.26856E-01 12749   0.648E-01    0.535E-01
RMM:   3    -0.115680293106E+04   -0.42524E-03   -0.14388E-02 13312   0.198E-01    0.354E-01
RMM:   4    -0.115680233076E+04    0.60031E-03   -0.28641E-03 15277   0.584E-02    0.201E-01
RMM:   5    -0.115680218181E+04    0.14895E-03   -0.12646E-03 12718   0.328E-02    0.537E-02
RMM:   6    -0.115680219607E+04   -0.14265E-04   -0.18180E-04  8337   0.164E-02    0.424E-02
RMM:   7    -0.115680220370E+04   -0.76324E-05   -0.79754E-05  7412   0.104E-02    0.236E-02
RMM:   8    -0.115680220797E+04   -0.42688E-05   -0.60750E-05  7245   0.974E-03
   8 F= -.11568022E+04 E0= -.11568022E+04  d E =-.194632E-01  mag=    14.0000
       N       E                     dE             d eps       ncg     rms          rms(c)
DAV:   1    -0.115679833514E+04    0.38686E-02   -0.74997E+00 12720   0.308E+00    0.569E-01
RMM:   2    -0.115681544846E+04   -0.17113E-01   -0.18045E-01 12781   0.526E-01    0.371E-01
RMM:   3    -0.115681542253E+04    0.25938E-04   -0.88087E-03 13104   0.163E-01    0.242E-01
RMM:   4    -0.115681503314E+04    0.38938E-03   -0.21643E-03 14464   0.503E-02    0.129E-01
RMM:   5    -0.115681498978E+04    0.43364E-04   -0.66910E-04 12088   0.255E-02    0.386E-02
RMM:   6    -0.115681499586E+04   -0.60796E-05   -0.10088E-04  7589   0.135E-02    0.254E-02
RMM:   7    -0.115681500195E+04   -0.60897E-05   -0.57046E-05  7278   0.950E-03    0.156E-02
RMM:   8    -0.115681500640E+04   -0.44561E-05   -0.46003E-05  7085   0.849E-03
   9 F= -.11568150E+04 E0= -.11568150E+04  d E =-.127984E-01  mag=    14.0000
       N       E                     dE             d eps       ncg     rms          rms(c)
DAV:   1    -0.115680800833E+04    0.69936E-02   -0.82390E+00 12736   0.324E+00    0.599E-01
RMM:   2    -0.115682698643E+04   -0.18978E-01   -0.19777E-01 12926   0.547E-01    0.367E-01
RMM:   3    -0.115682686941E+04    0.11703E-03   -0.90935E-03 13280   0.167E-01    0.233E-01
RMM:   4    -0.115682645370E+04    0.41571E-03   -0.22814E-03 14608   0.523E-02    0.116E-01
RMM:   5    -0.115682644295E+04    0.10755E-04   -0.59548E-04 11638   0.248E-02    0.307E-02
RMM:   6    -0.115682645017E+04   -0.72205E-05   -0.83338E-05  7608   0.134E-02    0.203E-02
RMM:   7    -0.115682645772E+04   -0.75558E-05   -0.69542E-05  7348   0.998E-03    0.131E-02
RMM:   8    -0.115682646219E+04   -0.44647E-05   -0.50817E-05  7056   0.843E-03
  10 F= -.11568265E+04 E0= -.11568265E+04  d E =-.114558E-01  mag=    14.0000
       N       E                     dE             d eps       ncg     rms          rms(c)
DAV:   1    -0.115682104201E+04    0.54157E-02   -0.58548E+00 12704   0.274E+00    0.521E-01
RMM:   2    -0.115683482650E+04   -0.13784E-01   -0.14094E-01 12923   0.463E-01    0.319E-01
RMM:   3    -0.115683481250E+04    0.14002E-04   -0.64871E-03 13236   0.141E-01    0.201E-01
RMM:   4    -0.115683454477E+04    0.26773E-03   -0.14738E-03 14136   0.427E-02    0.111E-01
RMM:   5    -0.115683449931E+04    0.45464E-04   -0.55755E-04 11356   0.239E-02    0.270E-02
RMM:   6    -0.115683450442E+04   -0.51117E-05   -0.69437E-05  7313   0.131E-02    0.201E-02
RMM:   7    -0.115683451015E+04   -0.57354E-05   -0.56278E-05  7167   0.880E-03    0.144E-02
RMM:   8    -0.115683451351E+04   -0.33594E-05   -0.36024E-05  6984   0.826E-03
  11 F= -.11568345E+04 E0= -.11568345E+04  d E =-.805133E-02  mag=    14.0000
       N       E                     dE             d eps       ncg     rms          rms(c)
DAV:   1    -0.115683145055E+04    0.30596E-02   -0.36527E+00 12880   0.217E+00    0.420E-01
RMM:   2    -0.115684021667E+04   -0.87661E-02   -0.88073E-02 12926   0.365E-01    0.250E-01
RMM:   3    -0.115684022286E+04   -0.61914E-05   -0.40029E-03 13100   0.112E-01    0.152E-01
RMM:   4    -0.115684004736E+04    0.17550E-03   -0.92651E-04 13020   0.343E-02    0.793E-02
RMM:   5    -0.115684002970E+04    0.17653E-04   -0.29969E-04  9203   0.197E-02    0.220E-02
RMM:   6    -0.115684003494E+04   -0.52340E-05   -0.50197E-05  7173   0.119E-02    0.162E-02
RMM:   7    -0.115684003952E+04   -0.45792E-05   -0.43273E-05  6997   0.810E-03    0.118E-02
RMM:   8    -0.115684004220E+04   -0.26820E-05   -0.25925E-05  6832   0.740E-03
  12 F= -.11568400E+04 E0= -.11568400E+04  d E =-.552869E-02  mag=    14.0000
       N       E                     dE             d eps       ncg     rms          rms(c)
DAV:   1    -0.115683685487E+04    0.31846E-02   -0.32024E+00 12752   0.203E+00    0.398E-01
RMM:   2    -0.115684462852E+04   -0.77736E-02   -0.77231E-02 12901   0.342E-01    0.234E-01
RMM:   3    -0.115684466805E+04   -0.39532E-04   -0.35545E-03 13025   0.106E-01    0.141E-01
RMM:   4    -0.115684452051E+04    0.14754E-03   -0.81161E-04 12654   0.323E-02    0.739E-02
RMM:   5    -0.115684450654E+04    0.13971E-04   -0.26008E-04  8669   0.187E-02    0.203E-02
RMM:   6    -0.115684451116E+04   -0.46276E-05   -0.43960E-05  7139   0.115E-02    0.117E-02
RMM:   7    -0.115684451526E+04   -0.40957E-05   -0.38007E-05  6940   0.773E-03    0.968E-03
RMM:   8    -0.115684451754E+04   -0.22782E-05   -0.22568E-05  6773   0.703E-03
  13 F= -.11568445E+04 E0= -.11568445E+04  d E =-.447534E-02  mag=    14.0000
       N       E                     dE             d eps       ncg     rms          rms(c)
DAV:   1    -0.115684297518E+04    0.15401E-02   -0.19917E+00 12848   0.160E+00    0.314E-01
RMM:   2    -0.115684781414E+04   -0.48390E-02   -0.48158E-02 12902   0.270E-01    0.183E-01
RMM:   3    -0.115684783606E+04   -0.21914E-04   -0.22179E-03 12700   0.835E-02    0.110E-01
RMM:   4    -0.115684774178E+04    0.94275E-04   -0.50002E-04 10904   0.258E-02    0.572E-02
RMM:   5    -0.115684773163E+04    0.10154E-04   -0.15564E-04  7506   0.163E-02    0.176E-02
RMM:   6    -0.115684773679E+04   -0.51565E-05   -0.40562E-05  7068   0.103E-02    0.121E-02
RMM:   7    -0.115684773965E+04   -0.28609E-05   -0.26585E-05  6814   0.683E-03    0.863E-03
RMM:   8    -0.115684774146E+04   -0.18106E-05   -0.16593E-05  6654   0.625E-03
  14 F= -.11568477E+04 E0= -.11568477E+04  d E =-.322392E-02  mag=    14.0000
       N       E                     dE             d eps       ncg     rms          rms(c)
DAV:   1    -0.115684597599E+04    0.17637E-02   -0.18867E+00 12752   0.156E+00    0.304E-01
RMM:   2    -0.115685054663E+04   -0.45706E-02   -0.45741E-02 12918   0.263E-01    0.179E-01
RMM:   3    -0.115685055485E+04   -0.82196E-05   -0.20796E-03 12630   0.809E-02    0.108E-01
RMM:   4    -0.115685046539E+04    0.89460E-04   -0.46379E-04 10559   0.250E-02    0.568E-02
RMM:   5    -0.115685045662E+04    0.87691E-05   -0.14290E-04  7389   0.160E-02    0.148E-02
RMM:   6    -0.115685046176E+04   -0.51310E-05   -0.39569E-05  7051   0.101E-02    0.127E-02
RMM:   7    -0.115685046429E+04   -0.25391E-05   -0.25041E-05  6782   0.662E-03    0.908E-03
RMM:   8    -0.115685046586E+04   -0.15603E-05   -0.15574E-05  6626   0.619E-03
  15 F= -.11568505E+04 E0= -.11568505E+04  d E =-.272440E-02  mag=    14.0000
       N       E                     dE             d eps       ncg     rms          rms(c)
DAV:   1    -0.115684950464E+04    0.95965E-03   -0.13565E+00 12808   0.133E+00    0.261E-01
RMM:   2    -0.115685280355E+04   -0.32989E-02   -0.32910E-02 12875   0.224E-01    0.154E-01
RMM:   3    -0.115685281970E+04   -0.16148E-04   -0.15217E-03 12078   0.702E-02    0.929E-02
RMM:   4    -0.115685275523E+04    0.64471E-04   -0.34004E-04  9253   0.219E-02    0.484E-02
RMM:   5    -0.115685274956E+04    0.56666E-05   -0.10562E-04  7195   0.145E-02    0.158E-02
RMM:   6    -0.115685275412E+04   -0.45531E-05   -0.35289E-05  7009   0.919E-03    0.118E-02
RMM:   7    -0.115685275629E+04   -0.21755E-05   -0.20682E-05  6718   0.628E-03    0.817E-03
RMM:   8    -0.115685275766E+04   -0.13724E-05   -0.13156E-05  6530   0.554E-03
  16 F= -.11568528E+04 E0= -.11568528E+04  d E =-.229181E-02  mag=    14.0000
       N       E                     dE             d eps       ncg     rms          rms(c)
DAV:   1    -0.115685184527E+04    0.91102E-03   -0.12050E+00 12840   0.126E+00    0.241E-01
RMM:   2    -0.115685476039E+04   -0.29151E-02   -0.29244E-02 12909   0.210E-01    0.142E-01
RMM:   3    -0.115685476297E+04   -0.25759E-05   -0.13146E-03 11781   0.651E-02    0.856E-02
RMM:   4    -0.115685470782E+04    0.55147E-04   -0.28449E-04  8562   0.205E-02    0.446E-02
RMM:   5    -0.115685470476E+04    0.30630E-05   -0.94531E-05  7148   0.139E-02    0.146E-02
RMM:   6    -0.115685470892E+04   -0.41609E-05   -0.32592E-05  6985   0.877E-03    0.117E-02
RMM:   7    -0.115685471095E+04   -0.20282E-05   -0.19139E-05  6661   0.605E-03    0.740E-03
RMM:   8    -0.115685471215E+04   -0.12050E-05   -0.11968E-05  6287   0.527E-03
  17 F= -.11568547E+04 E0= -.11568547E+04  d E =-.195449E-02  mag=    14.0000
