       N       E                     dE             d eps       ncg     rms          rms(c)
DAV:   1     0.117993801680E+05    0.11799E+05   -0.41774E+05  6168   0.130E+03
DAV:   2     0.604825042693E+03   -0.11195E+05   -0.99947E+04  6160   0.372E+02
DAV:   3    -0.137544063135E+04   -0.19803E+04   -0.19111E+04  6624   0.163E+02
DAV:   4    -0.150422128875E+04   -0.12878E+03   -0.12659E+03  8216   0.428E+01
DAV:   5    -0.151191959745E+04   -0.76983E+01   -0.76710E+01 11104   0.904E+00    0.180E+02
RMM:   6    -0.116752293369E+04    0.34440E+03   -0.15649E+03  6242   0.336E+01    0.952E+01
RMM:   7    -0.115483313706E+04    0.12690E+02   -0.59837E+01  6355   0.966E+00    0.558E+01
RMM:   8    -0.116047758529E+04   -0.56444E+01   -0.29539E+01  6276   0.626E+00    0.160E+01
RMM:   9    -0.116138949639E+04   -0.91191E+00   -0.24048E+00  7284   0.148E+00    0.762E+00
RMM:  10    -0.116249757528E+04   -0.11081E+01   -0.19588E+00  6618   0.121E+00    0.522E+00
RMM:  11    -0.116364875816E+04   -0.11512E+01   -0.10627E+00  6559   0.925E-01    0.255E+00
RMM:  12    -0.116387124228E+04   -0.22248E+00   -0.30198E-01  7270   0.486E-01    0.164E+00
RMM:  13    -0.116394535763E+04   -0.74115E-01   -0.13218E-01  7357   0.311E-01    0.133E+00
RMM:  14    -0.116397035727E+04   -0.25000E-01   -0.43818E-02  7319   0.185E-01    0.674E-01
RMM:  15    -0.116398040720E+04   -0.10050E-01   -0.27173E-02  7300   0.140E-01    0.245E-01
RMM:  16    -0.116398163598E+04   -0.12288E-02   -0.54719E-03  8164   0.589E-02    0.138E-01
RMM:  17    -0.116398181573E+04   -0.17975E-03   -0.16526E-03  7223   0.279E-02    0.681E-02
RMM:  18    -0.116398195053E+04   -0.13479E-03   -0.64784E-04  5959   0.182E-02    0.382E-02
RMM:  19    -0.116398198806E+04   -0.37533E-04   -0.27405E-04  4720   0.124E-02
   1 F= -.11639820E+04 E0= -.11639717E+04  d E =-.116398E+04  mag=     3.9657
       N       E                     dE             d eps       ncg     rms          rms(c)
DAV:   1    -0.116433398238E+04   -0.35203E+00   -0.15364E+02  7168   0.135E+01    0.471E+00
RMM:   2    -0.116483803001E+04   -0.50405E+00   -0.56979E+00  6144   0.259E+00    0.369E+00
RMM:   3    -0.116480717939E+04    0.30851E-01   -0.35706E-01  6336   0.712E-01    0.200E+00
RMM:   4    -0.116480621563E+04    0.96376E-03   -0.11581E-01  6723   0.312E-01    0.135E+00
RMM:   5    -0.116480911990E+04   -0.29043E-02   -0.43888E-02  6654   0.199E-01    0.557E-01
RMM:   6    -0.116481305286E+04   -0.39330E-02   -0.80113E-03  7895   0.840E-02    0.355E-01
RMM:   7    -0.116481500690E+04   -0.19540E-02   -0.36099E-03  7412   0.527E-02    0.193E-01
RMM:   8    -0.116481564893E+04   -0.64203E-03   -0.14162E-03  7041   0.324E-02    0.702E-02
RMM:   9    -0.116481576318E+04   -0.11426E-03   -0.43389E-04  5124   0.158E-02    0.522E-02
RMM:  10    -0.116481585349E+04   -0.90310E-04   -0.22773E-04  4591   0.117E-02
   2 F= -.11648159E+04 E0= -.11648070E+04  d E =-.833865E+00  mag=     3.9882
       N       E                     dE             d eps       ncg     rms          rms(c)
DAV:   1    -0.116481852382E+04   -0.27606E-02   -0.16393E+01  7064   0.448E+00    0.155E+00
RMM:   2    -0.116485207443E+04   -0.33551E-01   -0.50997E-01  6144   0.822E-01    0.130E+00
RMM:   3    -0.116484678991E+04    0.52845E-02   -0.26537E-02  6241   0.200E-01    0.782E-01
RMM:   4    -0.116484475881E+04    0.20311E-02   -0.13851E-02  6345   0.109E-01    0.469E-01
RMM:   5    -0.116484409419E+04    0.66463E-03   -0.34731E-03  6169   0.546E-02    0.175E-01
RMM:   6    -0.116484413452E+04   -0.40335E-04   -0.35677E-04  4822   0.180E-02    0.103E-01
RMM:   7    -0.116484418260E+04   -0.48077E-04   -0.20172E-04  4331   0.139E-02    0.400E-02
RMM:   8    -0.116484419336E+04   -0.10764E-04   -0.64355E-05  4002   0.844E-03
   3 F= -.11648442E+04 E0= -.11648353E+04  d E =-.862205E+00  mag=     3.9921
       N       E                     dE             d eps       ncg     rms          rms(c)
DAV:   1    -0.116485024151E+04   -0.60589E-02   -0.16246E+00  6920   0.142E+00    0.488E-01
RMM:   2    -0.116485306664E+04   -0.28251E-02   -0.46194E-02  6130   0.254E-01    0.425E-01
RMM:   3    -0.116485246461E+04    0.60203E-03   -0.22794E-03  6000   0.582E-02    0.263E-01
RMM:   4    -0.116485220200E+04    0.26261E-03   -0.14396E-03  5598   0.354E-02    0.150E-01
RMM:   5    -0.116485211255E+04    0.89451E-04   -0.31566E-04  4769   0.175E-02    0.534E-02
RMM:   6    -0.116485211549E+04   -0.29385E-05   -0.39145E-05  3710   0.696E-03    0.311E-02
RMM:   7    -0.116485211807E+04   -0.25757E-05   -0.20917E-05  3496   0.486E-03    0.148E-02
RMM:   8    -0.116485211934E+04   -0.12704E-05   -0.79237E-06  3144   0.329E-03
   4 F= -.11648521E+04 E0= -.11648432E+04  d E =-.870131E+00  mag=     3.9922
       N       E                     dE             d eps       ncg     rms          rms(c)
DAV:   1    -0.116488626101E+04   -0.34143E-01   -0.88709E+01  6376   0.107E+01    0.264E+00
RMM:   2    -0.116506425088E+04   -0.17799E+00   -0.26300E+00  6144   0.192E+00    0.212E+00
RMM:   3    -0.116504324648E+04    0.21004E-01   -0.11133E-01  6454   0.438E-01    0.136E+00
RMM:   4    -0.116503088788E+04    0.12359E-01   -0.49580E-02  6689   0.214E-01    0.779E-01
RMM:   5    -0.116502633042E+04    0.45575E-02   -0.12228E-02  6747   0.104E-01    0.229E-01
RMM:   6    -0.116502647859E+04   -0.14817E-03   -0.16348E-03  7685   0.352E-02    0.143E-01
RMM:   7    -0.116502656016E+04   -0.81577E-04   -0.71730E-04  6755   0.224E-02    0.720E-02
RMM:   8    -0.116502659316E+04   -0.32995E-04   -0.26179E-04  4860   0.138E-02
   5 F= -.11650266E+04 E0= -.11650170E+04  d E =-.174474E+00  mag=     3.9933
       N       E                     dE             d eps       ncg     rms          rms(c)
DAV:   1    -0.116503142521E+04   -0.48650E-02   -0.30622E+00  6768   0.199E+00    0.496E-01
RMM:   2    -0.116503746447E+04   -0.60393E-02   -0.91237E-02  6144   0.358E-01    0.399E-01
RMM:   3    -0.116503672429E+04    0.74018E-03   -0.38431E-03  6220   0.827E-02    0.256E-01
RMM:   4    -0.116503624459E+04    0.47970E-03   -0.17651E-03  5919   0.414E-02    0.141E-01
RMM:   5    -0.116503608969E+04    0.15490E-03   -0.36072E-04  5018   0.191E-02    0.428E-02
RMM:   6    -0.116503609233E+04   -0.26401E-05   -0.44436E-05  3584   0.744E-03    0.256E-02
RMM:   7    -0.116503609392E+04   -0.15814E-05   -0.21524E-05  3459   0.508E-03    0.160E-02
RMM:   8    -0.116503609490E+04   -0.98704E-06   -0.10062E-05  3158   0.370E-03
   6 F= -.11650361E+04 E0= -.11650267E+04  d E =-.183976E+00  mag=     3.9932
       N       E                     dE             d eps       ncg     rms          rms(c)
DAV:   1    -0.116506072737E+04   -0.24633E-01   -0.26632E+01  6408   0.580E+00    0.150E+00
RMM:   2    -0.116512059932E+04   -0.59872E-01   -0.76669E-01  6145   0.104E+00    0.148E+00
RMM:   3    -0.116511490562E+04    0.56937E-02   -0.31742E-02  6679   0.229E-01    0.101E+00
RMM:   4    -0.116511274679E+04    0.21588E-02   -0.14319E-02  6701   0.112E-01    0.648E-01
RMM:   5    -0.116511032959E+04    0.24172E-02   -0.56176E-03  6581   0.690E-02    0.116E-01
RMM:   6    -0.116511031147E+04    0.18114E-04   -0.54330E-04  6114   0.212E-02    0.853E-02
RMM:   7    -0.116511031654E+04   -0.50654E-05   -0.22330E-04  4613   0.127E-02    0.522E-02
RMM:   8    -0.116511034287E+04   -0.26331E-04   -0.14629E-04  4005   0.110E-02
   7 F= -.11651103E+04 E0= -.11651009E+04  d E =-.742480E-01  mag=     3.9929
       N       E                     dE             d eps       ncg     rms          rms(c)
DAV:   1    -0.116511038548E+04   -0.68944E-04   -0.15968E+00  6584   0.142E+00    0.362E-01
RMM:   2    -0.116511407511E+04   -0.36896E-02   -0.46212E-02  6138   0.254E-01    0.357E-01
RMM:   3    -0.116511373038E+04    0.34473E-03   -0.19620E-03  6497   0.562E-02    0.242E-01
RMM:   4    -0.116511360339E+04    0.12699E-03   -0.86747E-04  5771   0.274E-02    0.154E-01
RMM:   5    -0.116511347587E+04    0.12751E-03   -0.33952E-04  4870   0.180E-02    0.294E-02
RMM:   6    -0.116511347758E+04   -0.17093E-05   -0.38995E-05  3614   0.699E-03    0.216E-02
RMM:   7    -0.116511347956E+04   -0.19790E-05   -0.21676E-05  3438   0.486E-03    0.139E-02
RMM:   8    -0.116511348241E+04   -0.28509E-05   -0.13716E-05  3353   0.414E-03
   8 F= -.11651135E+04 E0= -.11651041E+04  d E =-.773875E-01  mag=     3.9929
       N       E                     dE             d eps       ncg     rms          rms(c)
DAV:   1    -0.116510700972E+04    0.64698E-02   -0.26802E+01  6328   0.583E+00    0.114E+00
RMM:   2    -0.116516637695E+04   -0.59367E-01   -0.69884E-01  6144   0.980E-01    0.972E-01
RMM:   3    -0.116516337747E+04    0.29995E-02   -0.27923E-02  6558   0.224E-01    0.639E-01
RMM:   4    -0.116516151581E+04    0.18617E-02   -0.88214E-03  6924   0.871E-02    0.410E-01
RMM:   5    -0.116516062440E+04    0.89141E-03   -0.34973E-03  6761   0.516E-02    0.853E-02
RMM:   6    -0.116516063471E+04   -0.10318E-04   -0.37139E-04  5312   0.192E-02    0.586E-02
RMM:   7    -0.116516064593E+04   -0.11215E-04   -0.18259E-04  4323   0.117E-02    0.301E-02
RMM:   8    -0.116516065509E+04   -0.91627E-05   -0.99536E-05  3883   0.891E-03
   9 F= -.11651607E+04 E0= -.11651511E+04  d E =-.471727E-01  mag=     3.9933
       N       E                     dE             d eps       ncg     rms          rms(c)
DAV:   1    -0.116515041480E+04    0.10231E-01   -0.88934E+00  6448   0.337E+00    0.654E-01
RMM:   2    -0.116516998122E+04   -0.19566E-01   -0.23019E-01  6144   0.563E-01    0.557E-01
RMM:   3    -0.116516899557E+04    0.98565E-03   -0.93301E-03  6503   0.129E-01    0.368E-01
RMM:   4    -0.116516839146E+04    0.60412E-03   -0.30537E-03  6669   0.505E-02    0.235E-01
RMM:   5    -0.116516810196E+04    0.28949E-03   -0.11843E-03  6177   0.300E-02    0.489E-02
RMM:   6    -0.116516810295E+04   -0.98723E-06   -0.10979E-04  4129   0.115E-02    0.334E-02
RMM:   7    -0.116516810766E+04   -0.47139E-05   -0.65001E-05  3750   0.794E-03    0.179E-02
RMM:   8    -0.116516811060E+04   -0.29413E-05   -0.33263E-05  3586   0.610E-03
  10 F= -.11651681E+04 E0= -.11651584E+04  d E =-.546282E-01  mag=     3.9937
       N       E                     dE             d eps       ncg     rms          rms(c)
DAV:   1    -0.116515552540E+04    0.12582E-01   -0.22701E+01  6336   0.525E+00    0.102E+00
RMM:   2    -0.116520681480E+04   -0.51289E-01   -0.58156E-01  6144   0.877E-01    0.846E-01
RMM:   3    -0.116520426307E+04    0.25517E-02   -0.23872E-02  6482   0.203E-01    0.538E-01
RMM:   4    -0.116520281842E+04    0.14447E-02   -0.68859E-03  6963   0.780E-02    0.357E-01
RMM:   5    -0.116520201978E+04    0.79863E-03   -0.26944E-03  6664   0.459E-02    0.727E-02
RMM:   6    -0.116520204600E+04   -0.26215E-04   -0.27835E-04  4899   0.164E-02    0.559E-02
RMM:   7    -0.116520205967E+04   -0.13674E-04   -0.13501E-04  4066   0.105E-02    0.319E-02
RMM:   8    -0.116520207400E+04   -0.14328E-04   -0.94051E-05  3805   0.875E-03
  11 F= -.11652021E+04 E0= -.11651924E+04  d E =-.339634E-01  mag=     3.9940
       N       E                     dE             d eps       ncg     rms          rms(c)
DAV:   1    -0.116518960655E+04    0.12453E-01   -0.93243E+00  6440   0.336E+00    0.645E-01
RMM:   2    -0.116521034548E+04   -0.20739E-01   -0.23616E-01  6144   0.558E-01    0.533E-01
RMM:   3    -0.116520930399E+04    0.10415E-02   -0.98155E-03  6460   0.129E-01    0.341E-01
RMM:   4    -0.116520871849E+04    0.58550E-03   -0.29364E-03  6660   0.501E-02    0.224E-01
RMM:   5    -0.116520838902E+04    0.32947E-03   -0.10780E-03  6072   0.291E-02    0.464E-02
RMM:   6    -0.116520839875E+04   -0.97261E-05   -0.10462E-04  4134   0.109E-02    0.354E-02
RMM:   7    -0.116520840427E+04   -0.55204E-05   -0.56478E-05  3728   0.758E-03    0.202E-02
RMM:   8    -0.116520841020E+04   -0.59334E-05   -0.41942E-05  3653   0.645E-03
  12 F= -.11652084E+04 E0= -.11651988E+04  d E =-.402996E-01  mag=     3.9943
       N       E                     dE             d eps       ncg     rms          rms(c)
DAV:   1    -0.116520091507E+04    0.74892E-02   -0.14766E+01  6384   0.420E+00    0.836E-01
RMM:   2    -0.116523291048E+04   -0.31995E-01   -0.35701E-01  6145   0.688E-01    0.701E-01
RMM:   3    -0.116523161271E+04    0.12978E-02   -0.14728E-02  6389   0.161E-01    0.450E-01
RMM:   4    -0.116523096178E+04    0.65093E-03   -0.47205E-03  6639   0.629E-02    0.296E-01
RMM:   5    -0.116523044481E+04    0.51697E-03   -0.16434E-03  6359   0.347E-02    0.495E-02
RMM:   6    -0.116523045032E+04   -0.55126E-05   -0.14277E-04  4353   0.122E-02    0.380E-02
RMM:   7    -0.116523045480E+04   -0.44804E-05   -0.71187E-05  3874   0.816E-03    0.222E-02
RMM:   8    -0.116523046206E+04   -0.72552E-05   -0.64321E-05  3753   0.752E-03
  13 F= -.11652305E+04 E0= -.11652209E+04  d E =-.220519E-01  mag=     3.9940
       N       E                     dE             d eps       ncg     rms          rms(c)
DAV:   1    -0.116522290837E+04    0.75464E-02   -0.67646E+00  6400   0.284E+00    0.565E-01
RMM:   2    -0.116523758933E+04   -0.14681E-01   -0.16365E-01  6125   0.464E-01    0.475E-01
RMM:   3    -0.116523697418E+04    0.61515E-03   -0.67880E-03  6377   0.109E-01    0.305E-01
RMM:   4    -0.116523667961E+04    0.29457E-03   -0.21875E-03  6370   0.425E-02    0.201E-01
RMM:   5    -0.116523644342E+04    0.23618E-03   -0.76099E-04  5842   0.240E-02    0.340E-02
RMM:   6    -0.116523644578E+04   -0.23526E-05   -0.50168E-05  3856   0.901E-03    0.260E-02
RMM:   7    -0.116523644987E+04   -0.40939E-05   -0.55275E-05  3648   0.644E-03    0.154E-02
RMM:   8    -0.116523645407E+04   -0.42019E-05   -0.42125E-05  3570   0.585E-03
  14 F= -.11652365E+04 E0= -.11652269E+04  d E =-.280439E-01  mag=     3.9938
       N       E                     dE             d eps       ncg     rms          rms(c)
DAV:   1    -0.116523158143E+04    0.48684E-02   -0.10022E+01  6432   0.360E+00    0.722E-01
RMM:   2    -0.116525315330E+04   -0.21572E-01   -0.25425E-01  6144   0.591E-01    0.520E-01
RMM:   3    -0.116525203760E+04    0.11157E-02   -0.10346E-02  6257   0.141E-01    0.333E-01
RMM:   4    -0.116525135789E+04    0.67971E-03   -0.39865E-03  6650   0.586E-02    0.137E-01
RMM:   5    -0.116525122573E+04    0.13216E-03   -0.70014E-04  6289   0.236E-02    0.476E-02
RMM:   6    -0.116525123190E+04   -0.61743E-05   -0.11757E-04  4116   0.101E-02    0.303E-02
RMM:   7    -0.116525123917E+04   -0.72642E-05   -0.73843E-05  3815   0.782E-03    0.116E-02
RMM:   8    -0.116525124207E+04   -0.29038E-05   -0.30891E-05  3581   0.594E-03
  15 F= -.11652512E+04 E0= -.11652419E+04  d E =-.147880E-01  mag=     3.9938
       N       E                     dE             d eps       ncg     rms          rms(c)
DAV:   1    -0.116524957714E+04    0.16620E-02   -0.13118E+00  6592   0.130E+00    0.261E-01
RMM:   2    -0.116525241554E+04   -0.28384E-02   -0.33413E-02  6148   0.214E-01    0.188E-01
RMM:   3    -0.116525226254E+04    0.15300E-03   -0.13915E-03  6167   0.511E-02    0.121E-01
RMM:   4    -0.116525217397E+04    0.88568E-04   -0.53681E-04  5636   0.216E-02    0.485E-02
RMM:   5    -0.116525215716E+04    0.16804E-04   -0.85707E-05  3770   0.970E-03    0.178E-02
RMM:   6    -0.116525215950E+04   -0.23341E-05   -0.25162E-05  3476   0.573E-03    0.108E-02
RMM:   7    -0.116525216151E+04   -0.20151E-05   -0.20304E-05  3221   0.433E-03    0.704E-03
RMM:   8    -0.116525216238E+04   -0.86878E-06   -0.11313E-05  2833   0.339E-03
  16 F= -.11652522E+04 E0= -.11652428E+04  d E =-.157083E-01  mag=     3.9938
       N       E                     dE             d eps       ncg     rms          rms(c)
DAV:   1    -0.116524235450E+04    0.98070E-02   -0.82894E+00  6416   0.328E+00    0.644E-01
RMM:   2    -0.116526073212E+04   -0.18378E-01   -0.20834E-01  6146   0.537E-01    0.455E-01
RMM:   3    -0.116525999726E+04    0.73486E-03   -0.83570E-03  6228   0.128E-01    0.292E-01
RMM:   4    -0.116525960634E+04    0.39092E-03   -0.28433E-03  6666   0.491E-02    0.147E-01
RMM:   5    -0.116525945176E+04    0.15458E-03   -0.65775E-04  6098   0.220E-02    0.377E-02
RMM:   6    -0.116525945726E+04   -0.55053E-05   -0.76614E-05  3845   0.937E-03    0.244E-02
RMM:   7    -0.116525946378E+04   -0.65170E-05   -0.70916E-05  3752   0.724E-03    0.128E-02
RMM:   8    -0.116525946623E+04   -0.24454E-05   -0.29697E-05  3526   0.571E-03
  17 F= -.11652595E+04 E0= -.11652504E+04  d E =-.730385E-02  mag=     3.9939
       N       E                     dE             d eps       ncg     rms          rms(c)
DAV:   1    -0.116525814589E+04    0.13179E-02   -0.99220E-01  6432   0.114E+00    0.223E-01
RMM:   2    -0.116526036329E+04   -0.22174E-02   -0.25127E-02  6157   0.186E-01    0.158E-01
RMM:   3    -0.116526026676E+04    0.96529E-04   -0.10283E-03  5944   0.444E-02    0.101E-01
RMM:   4    -0.116526021882E+04    0.47935E-04   -0.34547E-04  4912   0.177E-02    0.511E-02
RMM:   5    -0.116526020216E+04    0.16664E-04   -0.81597E-05  3711   0.936E-03    0.141E-02
RMM:   6    -0.116526020455E+04   -0.23925E-05   -0.23452E-05  3433   0.539E-03    0.884E-03
RMM:   7    -0.116526020611E+04   -0.15578E-05   -0.17100E-05  3118   0.397E-03    0.605E-03
RMM:   8    -0.116526020690E+04   -0.79573E-06   -0.92401E-06  2710   0.317E-03
  18 F= -.11652602E+04 E0= -.11652512E+04  d E =-.804452E-02  mag=     3.9939
       N       E                     dE             d eps       ncg     rms          rms(c)
DAV:   1    -0.116526244235E+04   -0.22362E-02   -0.14779E+00  6456   0.140E+00    0.307E-01
RMM:   2    -0.116526537784E+04   -0.29355E-02   -0.39878E-02  6137   0.244E-01    0.261E-01
RMM:   3    -0.116526513112E+04    0.24672E-03   -0.16507E-03  6360   0.537E-02    0.167E-01
RMM:   4    -0.116526495662E+04    0.17450E-03   -0.71784E-04  5560   0.254E-02    0.965E-02
RMM:   5    -0.116526488068E+04    0.75938E-04   -0.16620E-04  4204   0.138E-02    0.257E-02
RMM:   6    -0.116526488402E+04   -0.33386E-05   -0.32736E-05  3495   0.687E-03    0.159E-02
RMM:   7    -0.116526488538E+04   -0.13612E-05   -0.18541E-05  3400   0.472E-03    0.120E-02
RMM:   8    -0.116526488573E+04   -0.35444E-06   -0.78413E-06  3133   0.351E-03
  19 F= -.11652649E+04 E0= -.11652559E+04  d E =-.467883E-02  mag=     3.9937
       N       E                     dE             d eps       ncg     rms          rms(c)
DAV:   1    -0.116526492808E+04   -0.42700E-04   -0.11724E-01  6640   0.394E-01    0.865E-02
RMM:   2    -0.116526516324E+04   -0.23516E-03   -0.31863E-03  6074   0.688E-02    0.734E-02
RMM:   3    -0.116526514009E+04    0.23151E-04   -0.10496E-04  3632   0.154E-02    0.475E-02
RMM:   4    -0.116526512709E+04    0.12998E-04   -0.61398E-05  3521   0.866E-03    0.239E-02
RMM:   5    -0.116526512345E+04    0.36365E-05   -0.18064E-05  3284   0.460E-03    0.726E-03
RMM:   6    -0.116526512388E+04   -0.42764E-06   -0.51086E-06  2549   0.275E-03    0.533E-03
RMM:   7    -0.116526512409E+04   -0.21271E-06   -0.20792E-06  1829   0.218E-03    0.298E-03
RMM:   8    -0.116526512423E+04   -0.13888E-06   -0.11765E-06  1585   0.209E-03
  20 F= -.11652651E+04 E0= -.11652562E+04  d E =-.491733E-02  mag=     3.9936
       N       E                     dE             d eps       ncg     rms          rms(c)
DAV:   1    -0.116526527676E+04   -0.15267E-03   -0.13766E+00  6416   0.137E+00    0.283E-01
RMM:   2    -0.116526835215E+04   -0.30754E-02   -0.36182E-02  6140   0.229E-01    0.196E-01
RMM:   3    -0.116526821955E+04    0.13260E-03   -0.14241E-03  6094   0.537E-02    0.128E-01
RMM:   4    -0.116526813382E+04    0.85725E-04   -0.58464E-04  5447   0.224E-02    0.367E-02
RMM:   5    -0.116526812892E+04    0.49006E-05   -0.60679E-05  3566   0.884E-03    0.207E-02
RMM:   6    -0.116526813141E+04   -0.24906E-05   -0.23203E-05  3484   0.537E-03    0.113E-02
RMM:   7    -0.116526813324E+04   -0.18279E-05   -0.15256E-05  3221   0.426E-03    0.814E-03
RMM:   8    -0.116526813395E+04   -0.70586E-06   -0.82135E-06  2716   0.325E-03
  21 F= -.11652681E+04 E0= -.11652590E+04  d E =-.300971E-02  mag=     3.9936
       N       E                     dE             d eps       ncg     rms          rms(c)
DAV:   1    -0.116526632694E+04    0.18063E-02   -0.13811E+00  6424   0.137E+00    0.283E-01
RMM:   2    -0.116526942702E+04   -0.31001E-02   -0.36333E-02  6140   0.229E-01    0.196E-01
RMM:   3    -0.116526929616E+04    0.13087E-03   -0.14466E-03  6112   0.539E-02    0.129E-01
RMM:   4    -0.116526921384E+04    0.82311E-04   -0.59453E-04  5493   0.225E-02    0.387E-02
RMM:   5    -0.116526920881E+04    0.50309E-05   -0.67546E-05  3610   0.918E-03    0.213E-02
RMM:   6    -0.116526921172E+04   -0.29036E-05   -0.24870E-05  3485   0.560E-03    0.114E-02
RMM:   7    -0.116526921378E+04   -0.20606E-05   -0.17899E-05  3248   0.443E-03    0.904E-03
RMM:   8    -0.116526921469E+04   -0.90792E-06   -0.96773E-06  2791   0.335E-03
  22 F= -.11652692E+04 E0= -.11652599E+04  d E =-.409045E-02  mag=     3.9936
       N       E                     dE             d eps       ncg     rms          rms(c)
DAV:   1    -0.116526865866E+04    0.55512E-03   -0.15304E+00  6416   0.144E+00    0.303E-01
RMM:   2    -0.116527190011E+04   -0.32415E-02   -0.40111E-02  6142   0.242E-01    0.246E-01
RMM:   3    -0.116527171351E+04    0.18660E-03   -0.16582E-03  6234   0.566E-02    0.158E-01
RMM:   4    -0.116527158983E+04    0.12368E-03   -0.61974E-04  5699   0.236E-02    0.833E-02
RMM:   5    -0.116527153891E+04    0.50919E-04   -0.14290E-04  4151   0.126E-02    0.195E-02
RMM:   6    -0.116527154271E+04   -0.38000E-05   -0.33129E-05  3526   0.673E-03    0.126E-02
RMM:   7    -0.116527154447E+04   -0.17557E-05   -0.19642E-05  3378   0.488E-03    0.876E-03
RMM:   8    -0.116527154544E+04   -0.97045E-06   -0.97420E-06  2936   0.350E-03
  23 F= -.11652715E+04 E0= -.11652624E+04  d E =-.233075E-02  mag=     3.9937
       N       E                     dE             d eps       ncg     rms          rms(c)
DAV:   1    -0.116527153112E+04    0.13349E-04   -0.36594E-02  6592   0.223E-01    0.468E-02
RMM:   2    -0.116527161136E+04   -0.80243E-04   -0.98445E-04  5957   0.378E-02    0.383E-02
RMM:   3    -0.116527160565E+04    0.57124E-05   -0.34862E-05  3485   0.914E-03    0.249E-02
RMM:   4    -0.116527160342E+04    0.22257E-05   -0.18805E-05  3361   0.467E-03    0.119E-02
RMM:   5    -0.116527160268E+04    0.73989E-06   -0.53499E-06  2472   0.266E-03    0.308E-03
RMM:   6    -0.116527160283E+04   -0.14740E-06   -0.14435E-06  1428   0.207E-03    0.193E-03
RMM:   7    -0.116527160293E+04   -0.93976E-07   -0.82910E-07  1026   0.193E-03    0.122E-03
RMM:   8    -0.116527160297E+04   -0.42448E-07   -0.31419E-07   800   0.187E-03
  24 F= -.11652716E+04 E0= -.11652625E+04  d E =-.238828E-02  mag=     3.9937
       N       E                     dE             d eps       ncg     rms          rms(c)
DAV:   1    -0.116527133367E+04    0.26926E-03   -0.78171E-01  6448   0.101E+00    0.188E-01
RMM:   2    -0.116527304475E+04   -0.17111E-02   -0.19534E-02  6118   0.165E-01    0.140E-01
RMM:   3    -0.116527296496E+04    0.79787E-04   -0.76443E-04  5460   0.392E-02    0.890E-02
RMM:   4    -0.116527291173E+04    0.53236E-04   -0.23165E-04  4261   0.154E-02    0.564E-02
RMM:   5    -0.116527289599E+04    0.15736E-04   -0.72364E-05  3600   0.911E-03    0.121E-02
RMM:   6    -0.116527289785E+04   -0.18599E-05   -0.17158E-05  3377   0.485E-03    0.989E-03
RMM:   7    -0.116527289850E+04   -0.64478E-06   -0.82786E-06  2852   0.320E-03    0.476E-03
RMM:   8    -0.116527289898E+04   -0.48580E-06   -0.54351E-06  2575   0.274E-03
  25 F= -.11652729E+04 E0= -.11652638E+04  d E =-.129602E-02  mag=     3.9936
