       N       E                     dE             d eps       ncg     rms          rms(c)
DAV:   1    -0.115720650055E+04   -0.11572E+04   -0.36474E-06  7504   0.366E-03    0.569E-03
RMM:   2    -0.115720650090E+04   -0.35163E-06   -0.21100E-06  4584   0.286E-03    0.941E-03
RMM:   3    -0.115720650099E+04   -0.92739E-07   -0.60240E-07  2237   0.184E-03    0.187E-03
RMM:   4    -0.115720650113E+04   -0.13527E-06   -0.33341E-07  1723   0.183E-03    0.142E-03
RMM:   5    -0.115720650124E+04   -0.11649E-06   -0.23491E-07  1559   0.178E-03    0.142E-03
RMM:   6    -0.115720650141E+04   -0.16550E-06   -0.24597E-07  1362   0.182E-03    0.119E-03
RMM:   7    -0.115720650166E+04   -0.24903E-06   -0.46334E-07  1720   0.191E-03    0.115E-03
RMM:   8    -0.115720650185E+04   -0.18979E-06   -0.35633E-07  1658   0.188E-03
   1 F= -.11572065E+04 E0= -.11572065E+04  d E =-.115721E+04  mag=    14.0000
       N       E                     dE             d eps       ncg     rms          rms(c)
DAV:   1    -0.115720669253E+04   -0.19087E-03   -0.43152E-01 12872   0.773E-01    0.245E-01
RMM:   2    -0.115720764342E+04   -0.95089E-03   -0.13515E-02 12300   0.151E-01    0.246E-01
RMM:   3    -0.115720757183E+04    0.71592E-04   -0.63100E-04 11363   0.470E-02    0.165E-01
RMM:   4    -0.115720748712E+04    0.84709E-04   -0.38719E-04 10463   0.218E-02    0.845E-02
RMM:   5    -0.115720745323E+04    0.33887E-04   -0.87217E-05  8081   0.138E-02    0.386E-02
RMM:   6    -0.115720745482E+04   -0.15891E-05   -0.19247E-05  6955   0.693E-03    0.159E-02
RMM:   7    -0.115720745515E+04   -0.32441E-06   -0.90548E-06  6271   0.443E-03    0.118E-02
RMM:   8    -0.115720745571E+04   -0.56661E-06   -0.50009E-06  6090   0.351E-03
   2 F= -.11572075E+04 E0= -.11572075E+04  d E =-.953865E-03  mag=    14.0000
       N       E                     dE             d eps       ncg     rms          rms(c)
DAV:   1    -0.115720800127E+04   -0.54613E-03   -0.10033E-01 12352   0.359E-01    0.125E-01
RMM:   2    -0.115720818197E+04   -0.18070E-03   -0.35418E-03 12096   0.743E-02    0.142E-01
RMM:   3    -0.115720814431E+04    0.37665E-04   -0.12125E-04  7488   0.214E-02    0.106E-01
RMM:   4    -0.115720811354E+04    0.30769E-04   -0.11728E-04  7298   0.128E-02    0.558E-02
RMM:   5    -0.115720810236E+04    0.11181E-04   -0.40478E-05  6856   0.929E-03    0.444E-02
RMM:   6    -0.115720810276E+04   -0.39644E-06   -0.10759E-05  5936   0.502E-03    0.122E-02
RMM:   7    -0.115720810276E+04   -0.65920E-08   -0.42819E-06  4811   0.332E-03    0.112E-02
RMM:   8    -0.115720810297E+04   -0.21132E-06   -0.25452E-06  4468   0.270E-03
   3 F= -.11572081E+04 E0= -.11572081E+04  d E =-.647261E-03  mag=    14.0000
       N       E                     dE             d eps       ncg     rms          rms(c)
DAV:   1    -0.115720833876E+04   -0.23600E-03   -0.83762E-02 12416   0.339E-01    0.730E-02
RMM:   2    -0.115720852733E+04   -0.18857E-03   -0.22177E-03 12573   0.601E-02    0.589E-02
RMM:   3    -0.115720852002E+04    0.73141E-05   -0.85825E-05  6907   0.193E-02    0.386E-02
RMM:   4    -0.115720851417E+04    0.58491E-05   -0.34470E-05  6809   0.788E-03    0.233E-02
RMM:   5    -0.115720851311E+04    0.10631E-05   -0.11911E-05  6401   0.520E-03    0.134E-02
RMM:   6    -0.115720851367E+04   -0.55743E-06   -0.46866E-06  5623   0.351E-03    0.659E-03
RMM:   7    -0.115720851388E+04   -0.21872E-06   -0.20486E-06  4217   0.261E-03    0.368E-03
RMM:   8    -0.115720851402E+04   -0.14002E-06   -0.10458E-06  3107   0.223E-03
   4 F= -.11572085E+04 E0= -.11572085E+04  d E =-.411051E-03  mag=    14.0000
       N       E                     dE             d eps       ncg     rms          rms(c)
DAV:   1    -0.115720871649E+04   -0.20261E-03   -0.42243E-02 12160   0.239E-01    0.490E-02
RMM:   2    -0.115720880945E+04   -0.92958E-04   -0.10631E-03 11973   0.411E-02    0.342E-02
RMM:   3    -0.115720880757E+04    0.18863E-05   -0.47470E-05  6768   0.151E-02    0.216E-02
RMM:   4    -0.115720880510E+04    0.24614E-05   -0.20333E-05  6585   0.552E-03    0.122E-02
RMM:   5    -0.115720880511E+04   -0.34779E-08   -0.46540E-06  5378   0.349E-03    0.575E-03
RMM:   6    -0.115720880536E+04   -0.25207E-06   -0.20615E-06  3530   0.244E-03    0.297E-03
RMM:   7    -0.115720880548E+04   -0.11802E-06   -0.78502E-07  2572   0.228E-03    0.163E-03
RMM:   8    -0.115720880557E+04   -0.88970E-07   -0.35138E-07  1881   0.200E-03
   5 F= -.11572088E+04 E0= -.11572088E+04  d E =-.291543E-03  mag=    14.0000
       N       E                     dE             d eps       ncg     rms          rms(c)
DAV:   1    -0.115720896998E+04   -0.16450E-03   -0.90559E-02 12288   0.349E-01    0.670E-02
RMM:   2    -0.115720918204E+04   -0.21206E-03   -0.22284E-03 12441   0.588E-02    0.426E-02
RMM:   3    -0.115720917947E+04    0.25707E-05   -0.89390E-05  6928   0.203E-02    0.269E-02
RMM:   4    -0.115720917634E+04    0.31321E-05   -0.31627E-05  6780   0.722E-03    0.141E-02
RMM:   5    -0.115720917704E+04   -0.70431E-06   -0.81971E-06  6095   0.433E-03    0.817E-03
RMM:   6    -0.115720917751E+04   -0.46381E-06   -0.37077E-06  4824   0.311E-03    0.397E-03
RMM:   7    -0.115720917775E+04   -0.24364E-06   -0.18583E-06  3799   0.255E-03    0.266E-03
RMM:   8    -0.115720917788E+04   -0.12890E-06   -0.90852E-07  2655   0.222E-03
   6 F= -.11572092E+04 E0= -.11572092E+04  d E =-.372312E-03  mag=    14.0000
       N       E                     dE             d eps       ncg     rms          rms(c)
DAV:   1    -0.115720928942E+04   -0.11167E-03   -0.16070E-01 12416   0.462E-01    0.845E-02
RMM:   2    -0.115720966167E+04   -0.37226E-03   -0.39119E-03 12618   0.773E-02    0.537E-02
RMM:   3    -0.115720965648E+04    0.51947E-05   -0.16190E-04  7467   0.260E-02    0.341E-02
RMM:   4    -0.115720964978E+04    0.67025E-05   -0.48425E-05  6931   0.934E-03    0.172E-02
RMM:   5    -0.115720965123E+04   -0.14573E-05   -0.14492E-05  6602   0.563E-03    0.987E-03
RMM:   6    -0.115720965201E+04   -0.77336E-06   -0.63311E-06  5845   0.399E-03    0.496E-03
RMM:   7    -0.115720965243E+04   -0.42080E-06   -0.34882E-06  4652   0.300E-03    0.374E-03
RMM:   8    -0.115720965264E+04   -0.20833E-06   -0.18464E-06  3680   0.260E-03
   7 F= -.11572097E+04 E0= -.11572097E+04  d E =-.474757E-03  mag=    14.0000
       N       E                     dE             d eps       ncg     rms          rms(c)
DAV:   1    -0.115720973095E+04   -0.78523E-04   -0.16830E-01 12336   0.470E-01    0.846E-02
RMM:   2    -0.115721011914E+04   -0.38819E-03   -0.40563E-03 12541   0.780E-02    0.538E-02
RMM:   3    -0.115721011350E+04    0.56467E-05   -0.16875E-04  7516   0.264E-02    0.339E-02
RMM:   4    -0.115721010669E+04    0.68103E-05   -0.49630E-05  6924   0.926E-03    0.166E-02
RMM:   5    -0.115721010814E+04   -0.14542E-05   -0.14862E-05  6514   0.558E-03    0.784E-03
RMM:   6    -0.115721010892E+04   -0.78288E-06   -0.63721E-06  5670   0.396E-03    0.451E-03
RMM:   7    -0.115721010936E+04   -0.43712E-06   -0.36556E-06  4655   0.301E-03    0.319E-03
RMM:   8    -0.115721010959E+04   -0.22726E-06   -0.19211E-06  3668   0.265E-03
   8 F= -.11572101E+04 E0= -.11572101E+04  d E =-.456953E-03  mag=    14.0000
