       N       E                     dE             d eps       ncg     rms          rms(c)
DAV:   1     0.121060423250E+05    0.12106E+05   -0.42637E+05 12344   0.132E+03
DAV:   2     0.717586003432E+03   -0.11388E+05   -0.10176E+05 12304   0.380E+02
DAV:   3    -0.134663392005E+04   -0.20642E+04   -0.19865E+04 13224   0.168E+02
DAV:   4    -0.149040972785E+04   -0.14378E+03   -0.14128E+03 16304   0.471E+01
DAV:   5    -0.150002719251E+04   -0.96175E+01   -0.95683E+01 22064   0.113E+01    0.182E+02
RMM:   6    -0.116100089946E+04    0.33903E+03   -0.16465E+03 12575   0.363E+01    0.133E+02
RMM:   7    -0.114338266334E+04    0.17618E+02   -0.64103E+01 12808   0.127E+01    0.782E+01
RMM:   8    -0.114664315616E+04   -0.32605E+01   -0.26922E+01 14113   0.597E+00    0.410E+01
RMM:   9    -0.115090595165E+04   -0.42628E+01   -0.76401E+00 13595   0.323E+00    0.174E+01
RMM:  10    -0.115243498665E+04   -0.15290E+01   -0.17928E+00 14999   0.145E+00    0.708E+00
RMM:  11    -0.115384241721E+04   -0.14074E+01   -0.12751E+00 14644   0.101E+00    0.459E+00
RMM:  12    -0.115462849402E+04   -0.78608E+00   -0.56323E-01 14293   0.784E-01    0.328E+00
RMM:  13    -0.115502294846E+04   -0.39445E+00   -0.36130E-01 15133   0.529E-01    0.178E+00
RMM:  14    -0.115516062989E+04   -0.13768E+00   -0.18887E-01 13931   0.408E-01    0.909E-01
RMM:  15    -0.115517854764E+04   -0.17918E-01   -0.55337E-02 15361   0.226E-01    0.508E-01
RMM:  16    -0.115518108202E+04   -0.25344E-02   -0.12319E-02 17692   0.905E-02    0.361E-01
RMM:  17    -0.115518265375E+04   -0.15717E-02   -0.83358E-03 15601   0.701E-02    0.203E-01
RMM:  18    -0.115518284617E+04   -0.19243E-03   -0.17980E-03 12726   0.401E-02    0.115E-01
RMM:  19    -0.115518295164E+04   -0.10547E-03   -0.11753E-03 10447   0.214E-02    0.551E-02
RMM:  20    -0.115518302859E+04   -0.76951E-04   -0.52588E-04  9697   0.184E-02
   1 F= -.11551830E+04 E0= -.11551830E+04  d E =-.115518E+04  mag=    14.0013
       N       E                     dE             d eps       ncg     rms          rms(c)
DAV:   1    -0.112949556986E+04    0.25687E+02   -0.11845E+03 13776   0.328E+01    0.272E+01
RMM:   2    -0.115428069023E+04   -0.24785E+02   -0.81304E+01 12648   0.956E+00    0.278E+01
RMM:   3    -0.115520946798E+04   -0.92878E+00   -0.48709E+00 13370   0.307E+00    0.116E+01
RMM:   4    -0.115506617649E+04    0.14329E+00   -0.12889E+00 13895   0.119E+00    0.117E+01
RMM:   5    -0.115500066821E+04    0.65508E-01   -0.26764E-01 14603   0.424E-01    0.651E+00
RMM:   6    -0.115496116718E+04    0.39501E-01   -0.31397E-01 12661   0.576E-01    0.323E+00
RMM:   7    -0.115496303553E+04   -0.18684E-02   -0.38378E-02 15368   0.185E-01    0.750E-01
RMM:   8    -0.115496295101E+04    0.84521E-04   -0.85324E-03 18253   0.668E-02    0.623E-01
RMM:   9    -0.115496333674E+04   -0.38573E-03   -0.32077E-03 15325   0.489E-02    0.149E-01
RMM:  10    -0.115496360791E+04   -0.27117E-03   -0.13166E-03 13207   0.297E-02    0.853E-02
RMM:  11    -0.115496375928E+04   -0.15137E-03   -0.59571E-04  9799   0.189E-02    0.501E-02
RMM:  12    -0.115496388417E+04   -0.12490E-03   -0.32897E-04  8957   0.156E-02    0.431E-02
RMM:  13    -0.115496404138E+04   -0.15720E-03   -0.25795E-04  8483   0.159E-02    0.323E-02
RMM:  14    -0.115496412012E+04   -0.78741E-04   -0.14590E-04  8180   0.111E-02
   2 F= -.11549641E+04 E0= -.11549641E+04  d E =0.218908E+00  mag=    14.0000
       N       E                     dE             d eps       ncg     rms          rms(c)
DAV:   1    -0.115422804679E+04    0.73599E+00   -0.21145E+02 13424   0.136E+01    0.110E+01
RMM:   2    -0.115622568071E+04   -0.19976E+01   -0.77660E+00 12372   0.321E+00    0.104E+01
RMM:   3    -0.115632188327E+04   -0.96203E-01   -0.50634E-01 12819   0.111E+00    0.471E+00
RMM:   4    -0.115626534913E+04    0.56534E-01   -0.15091E-01 13859   0.381E-01    0.283E+00
RMM:   5    -0.115622800446E+04    0.37345E-01   -0.99751E-02 13088   0.315E-01    0.126E+00
RMM:   6    -0.115622716168E+04    0.84277E-03   -0.22785E-02 14400   0.139E-01    0.628E-01
RMM:   7    -0.115622690814E+04    0.25354E-03   -0.30525E-03 15497   0.458E-02    0.368E-01
RMM:   8    -0.115622688624E+04    0.21905E-04   -0.13243E-03 13627   0.329E-02    0.175E-01
RMM:   9    -0.115622696566E+04   -0.79419E-04   -0.42025E-04 10940   0.220E-02
   3 F= -.11562270E+04 E0= -.11562270E+04  d E =-.126285E+01  mag=    14.0000
       N       E                     dE             d eps       ncg     rms          rms(c)
DAV:   1    -0.115622869589E+04   -0.18096E-02   -0.32379E+01 13776   0.543E+00    0.382E+00
RMM:   2    -0.115640843847E+04   -0.17974E+00   -0.90465E-01 12321   0.112E+00    0.279E+00
RMM:   3    -0.115642853741E+04   -0.20099E-01   -0.53185E-02 12671   0.369E-01    0.135E+00
RMM:   4    -0.115642254121E+04    0.59962E-02   -0.17665E-02 13217   0.132E-01    0.724E-01
RMM:   5    -0.115642108730E+04    0.14539E-02   -0.61118E-03 12569   0.805E-02    0.199E-01
RMM:   6    -0.115642111945E+04   -0.32151E-04   -0.93166E-04 12238   0.294E-02    0.141E-01
RMM:   7    -0.115642113960E+04   -0.20158E-04   -0.22396E-04  8693   0.152E-02    0.826E-02
RMM:   8    -0.115642117289E+04   -0.33290E-04   -0.11472E-04  8136   0.116E-02
   4 F= -.11564212E+04 E0= -.11564212E+04  d E =-.194207E+00  mag=    14.0000
       N       E                     dE             d eps       ncg     rms          rms(c)
DAV:   1    -0.115640649895E+04    0.14641E-01   -0.15607E+01 13032   0.401E+00    0.248E+00
RMM:   2    -0.115648287743E+04   -0.76378E-01   -0.39940E-01 12479   0.788E-01    0.163E+00
RMM:   3    -0.115649203474E+04   -0.91573E-02   -0.24357E-02 13178   0.245E-01    0.909E-01
RMM:   4    -0.115649005471E+04    0.19800E-02   -0.82209E-03 13632   0.936E-02    0.367E-01
RMM:   5    -0.115648992472E+04    0.13000E-03   -0.22714E-03 12326   0.471E-02    0.150E-01
RMM:   6    -0.115648990651E+04    0.18211E-04   -0.26278E-04  8937   0.186E-02    0.103E-01
RMM:   7    -0.115648991739E+04   -0.10879E-04   -0.10126E-04  7892   0.116E-02    0.513E-02
RMM:   8    -0.115648994380E+04   -0.26418E-04   -0.84779E-05  7579   0.119E-02
   5 F= -.11564899E+04 E0= -.11564899E+04  d E =-.687709E-01  mag=    14.0000
       N       E                     dE             d eps       ncg     rms          rms(c)
DAV:   1    -0.115649754843E+04   -0.76310E-02   -0.12442E+01 12912   0.393E+00    0.115E+00
RMM:   2    -0.115652885141E+04   -0.31303E-01   -0.30687E-01 12416   0.715E-01    0.901E-01
RMM:   3    -0.115652996158E+04   -0.11102E-02   -0.17918E-02 13077   0.234E-01    0.528E-01
RMM:   4    -0.115652880293E+04    0.11587E-02   -0.45030E-03 15262   0.731E-02    0.303E-01
RMM:   5    -0.115652847152E+04    0.33141E-03   -0.22215E-03 13089   0.432E-02    0.105E-01
RMM:   6    -0.115652847560E+04   -0.40836E-05   -0.23060E-04  9202   0.209E-02    0.625E-02
RMM:   7    -0.115652848412E+04   -0.85205E-05   -0.97427E-05  7801   0.111E-02    0.360E-02
RMM:   8    -0.115652850562E+04   -0.21497E-04   -0.75596E-05  7466   0.109E-02
   6 F= -.11565285E+04 E0= -.11565285E+04  d E =-.385618E-01  mag=    14.0000
       N       E                     dE             d eps       ncg     rms          rms(c)
DAV:   1    -0.115652821160E+04    0.27252E-03   -0.12811E+01 12872   0.402E+00    0.107E+00
RMM:   2    -0.115656072562E+04   -0.32514E-01   -0.31162E-01 12601   0.707E-01    0.752E-01
RMM:   3    -0.115656168038E+04   -0.95476E-03   -0.17113E-02 13068   0.235E-01    0.450E-01
RMM:   4    -0.115656070711E+04    0.97327E-03   -0.51395E-03 15070   0.763E-02    0.233E-01
RMM:   5    -0.115656058727E+04    0.11984E-03   -0.15098E-03 13329   0.373E-02    0.768E-02
RMM:   6    -0.115656059178E+04   -0.45018E-05   -0.21167E-04  9052   0.171E-02    0.499E-02
RMM:   7    -0.115656060729E+04   -0.15510E-04   -0.11499E-04  7685   0.112E-02    0.351E-02
RMM:   8    -0.115656062859E+04   -0.21300E-04   -0.78331E-05  7392   0.106E-02
   7 F= -.11565606E+04 E0= -.11565606E+04  d E =-.321230E-01  mag=    14.0000
       N       E                     dE             d eps       ncg     rms          rms(c)
DAV:   1    -0.115656150285E+04   -0.89556E-03   -0.88704E+00 12848   0.336E+00    0.756E-01
RMM:   2    -0.115658201718E+04   -0.20514E-01   -0.21073E-01 12590   0.578E-01    0.541E-01
RMM:   3    -0.115658228575E+04   -0.26856E-03   -0.11272E-02 12950   0.193E-01    0.337E-01
RMM:   4    -0.115658173173E+04    0.55402E-03   -0.32670E-03 15037   0.614E-02    0.180E-01
RMM:   5    -0.115658166497E+04    0.66762E-04   -0.10417E-03 12718   0.306E-02    0.711E-02
RMM:   6    -0.115658166802E+04   -0.30520E-05   -0.14472E-04  8019   0.151E-02    0.375E-02
RMM:   7    -0.115658168020E+04   -0.12183E-04   -0.79897E-05  7404   0.103E-02    0.237E-02
RMM:   8    -0.115658169786E+04   -0.17658E-04   -0.60030E-05  7248   0.974E-03
   8 F= -.11565817E+04 E0= -.11565817E+04  d E =-.210693E-01  mag=    14.0000
       N       E                     dE             d eps       ncg     rms          rms(c)
DAV:   1    -0.115657607107E+04    0.56091E-02   -0.10301E+01 12712   0.364E+00    0.767E-01
RMM:   2    -0.115659998220E+04   -0.23911E-01   -0.24563E-01 12657   0.624E-01    0.501E-01
RMM:   3    -0.115660023244E+04   -0.25024E-03   -0.12721E-02 13012   0.205E-01    0.318E-01
RMM:   4    -0.115659973466E+04    0.49778E-03   -0.32533E-03 15670   0.623E-02    0.169E-01
RMM:   5    -0.115659967384E+04    0.60812E-04   -0.10828E-03 13283   0.306E-02    0.537E-02
RMM:   6    -0.115659968508E+04   -0.11239E-04   -0.16392E-04  8097   0.156E-02    0.419E-02
RMM:   7    -0.115659969728E+04   -0.12194E-04   -0.85067E-05  7398   0.105E-02    0.228E-02
RMM:   8    -0.115659971412E+04   -0.16848E-04   -0.64178E-05  7268   0.102E-02
   9 F= -.11565997E+04 E0= -.11565997E+04  d E =-.180163E-01  mag=    14.0000
       N       E                     dE             d eps       ncg     rms          rms(c)
DAV:   1    -0.115659609788E+04    0.35994E-02   -0.72592E+00 12704   0.307E+00    0.588E-01
RMM:   2    -0.115661242883E+04   -0.16331E-01   -0.17120E-01 12647   0.517E-01    0.367E-01
RMM:   3    -0.115661248801E+04   -0.59188E-04   -0.88640E-03 12934   0.174E-01    0.233E-01
RMM:   4    -0.115661215167E+04    0.33635E-03   -0.23142E-03 15257   0.528E-02    0.122E-01
RMM:   5    -0.115661214262E+04    0.90466E-05   -0.64639E-04 11992   0.245E-02    0.389E-02
RMM:   6    -0.115661215197E+04   -0.93509E-05   -0.89180E-05  7591   0.137E-02    0.232E-02
RMM:   7    -0.115661216528E+04   -0.13311E-04   -0.77195E-05  7422   0.103E-02    0.154E-02
RMM:   8    -0.115661217850E+04   -0.13216E-04   -0.55348E-05  7144   0.927E-03
  10 F= -.11566122E+04 E0= -.11566122E+04  d E =-.124644E-01  mag=    14.0000
       N       E                     dE             d eps       ncg     rms          rms(c)
DAV:   1    -0.115660788040E+04    0.42849E-02   -0.64942E+00 12720   0.291E+00    0.555E-01
RMM:   2    -0.115662266503E+04   -0.14785E-01   -0.15369E-01 12685   0.492E-01    0.328E-01
RMM:   3    -0.115662272429E+04   -0.59262E-04   -0.79331E-03 13016   0.161E-01    0.209E-01
RMM:   4    -0.115662242690E+04    0.29739E-03   -0.19585E-03 15067   0.490E-02    0.106E-01
RMM:   5    -0.115662241619E+04    0.10710E-04   -0.56241E-04 11362   0.236E-02    0.339E-02
RMM:   6    -0.115662242546E+04   -0.92675E-05   -0.78676E-05  7437   0.134E-02    0.202E-02
RMM:   7    -0.115662243646E+04   -0.11000E-04   -0.69557E-05  7337   0.101E-02    0.139E-02
RMM:   8    -0.115662244757E+04   -0.11105E-04   -0.50757E-05  7085   0.898E-03
  11 F= -.11566224E+04 E0= -.11566224E+04  d E =-.102691E-01  mag=    14.0000
       N       E                     dE             d eps       ncg     rms          rms(c)
DAV:   1    -0.115661805412E+04    0.43823E-02   -0.53862E+00 12704   0.265E+00    0.523E-01
RMM:   2    -0.115663055320E+04   -0.12499E-01   -0.12770E-01 12675   0.451E-01    0.305E-01
RMM:   3    -0.115663068454E+04   -0.13134E-03   -0.67484E-03 13013   0.146E-01    0.193E-01
RMM:   4    -0.115663044232E+04    0.24222E-03   -0.15326E-03 14695   0.438E-02    0.106E-01
RMM:   5    -0.115663041586E+04    0.26460E-04   -0.49425E-04 10892   0.227E-02    0.351E-02
RMM:   6    -0.115663042548E+04   -0.96190E-05   -0.74321E-05  7310   0.132E-02    0.185E-02
RMM:   7    -0.115663043398E+04   -0.85027E-05   -0.59224E-05  7220   0.971E-03    0.134E-02
RMM:   8    -0.115663044157E+04   -0.75893E-05   -0.38716E-05  6922   0.840E-03
  12 F= -.11566304E+04 E0= -.11566304E+04  d E =-.799400E-02  mag=    14.0000
       N       E                     dE             d eps       ncg     rms          rms(c)
DAV:   1    -0.115662521952E+04    0.52145E-02   -0.46307E+00 12672   0.247E+00    0.534E-01
RMM:   2    -0.115663657796E+04   -0.11358E-01   -0.11006E-01 12660   0.420E-01    0.301E-01
RMM:   3    -0.115663684684E+04   -0.26888E-03   -0.57810E-03 12911   0.138E-01    0.177E-01
RMM:   4    -0.115663664799E+04    0.19884E-03   -0.13240E-03 14423   0.410E-02    0.945E-02
RMM:   5    -0.115663662004E+04    0.27955E-04   -0.45214E-04 10504   0.221E-02    0.380E-02
RMM:   6    -0.115663662840E+04   -0.83640E-05   -0.76315E-05  7254   0.131E-02    0.201E-02
RMM:   7    -0.115663663442E+04   -0.60123E-05   -0.46557E-05  7130   0.921E-03    0.125E-02
RMM:   8    -0.115663664082E+04   -0.64066E-05   -0.36644E-05  6935   0.837E-03
  13 F= -.11566366E+04 E0= -.11566366E+04  d E =-.619925E-02  mag=    14.0000
       N       E                     dE             d eps       ncg     rms          rms(c)
DAV:   1    -0.115663451116E+04    0.21233E-02   -0.24271E+00 12848   0.179E+00    0.387E-01
RMM:   2    -0.115664049086E+04   -0.59797E-02   -0.57823E-02 12646   0.305E-01    0.218E-01
RMM:   3    -0.115664063950E+04   -0.14864E-03   -0.30529E-03 12755   0.100E-01    0.127E-01
RMM:   4    -0.115664053467E+04    0.10483E-03   -0.68181E-04 12054   0.299E-02    0.695E-02
RMM:   5    -0.115664051766E+04    0.17001E-04   -0.22926E-04  8117   0.184E-02    0.338E-02
RMM:   6    -0.115664052483E+04   -0.71677E-05   -0.55115E-05  7123   0.120E-02    0.175E-02
RMM:   7    -0.115664052946E+04   -0.46244E-05   -0.34074E-05  6898   0.799E-03    0.110E-02
RMM:   8    -0.115664053385E+04   -0.43987E-05   -0.23586E-05  6797   0.753E-03
  14 F= -.11566405E+04 E0= -.11566405E+04  d E =-.389303E-02  mag=    14.0000
       N       E                     dE             d eps       ncg     rms          rms(c)
DAV:   1    -0.115663912975E+04    0.13997E-02   -0.18115E+00 12728   0.156E+00    0.329E-01
RMM:   2    -0.115664355719E+04   -0.44274E-02   -0.43360E-02 12598   0.266E-01    0.184E-01
RMM:   3    -0.115664367379E+04   -0.11660E-03   -0.23722E-03 12581   0.887E-02    0.109E-01
RMM:   4    -0.115664359645E+04    0.77345E-04   -0.50549E-04 10752   0.261E-02    0.605E-02
RMM:   5    -0.115664358240E+04    0.14048E-04   -0.16135E-04  7412   0.169E-02    0.260E-02
RMM:   6    -0.115664358945E+04   -0.70463E-05   -0.49304E-05  7078   0.113E-02    0.162E-02
RMM:   7    -0.115664359334E+04   -0.38890E-05   -0.30532E-05  6812   0.750E-03    0.103E-02
RMM:   8    -0.115664359677E+04   -0.34360E-05   -0.19119E-05  6666   0.699E-03
  15 F= -.11566436E+04 E0= -.11566436E+04  d E =-.306292E-02  mag=    14.0000
       N       E                     dE             d eps       ncg     rms          rms(c)
DAV:   1    -0.115664119301E+04    0.24003E-02   -0.21150E+00 12704   0.168E+00    0.350E-01
RMM:   2    -0.115664632659E+04   -0.51336E-02   -0.50458E-02 12662   0.286E-01    0.195E-01
RMM:   3    -0.115664644293E+04   -0.11635E-03   -0.27024E-03 12646   0.936E-02    0.116E-01
RMM:   4    -0.115664635268E+04    0.90251E-04   -0.57652E-04 11275   0.277E-02    0.641E-02
RMM:   5    -0.115664633593E+04    0.16750E-04   -0.18688E-04  7590   0.174E-02    0.283E-02
RMM:   6    -0.115664634267E+04   -0.67390E-05   -0.50947E-05  7090   0.116E-02    0.164E-02
RMM:   7    -0.115664634648E+04   -0.38106E-05   -0.31636E-05  6859   0.750E-03    0.105E-02
RMM:   8    -0.115664634934E+04   -0.28560E-05   -0.19215E-05  6680   0.710E-03
  16 F= -.11566463E+04 E0= -.11566463E+04  d E =-.275257E-02  mag=    14.0000
       N       E                     dE             d eps       ncg     rms          rms(c)
DAV:   1    -0.115664465506E+04    0.16914E-02   -0.15487E+00 12704   0.145E+00    0.297E-01
RMM:   2    -0.115664838025E+04   -0.37252E-02   -0.37297E-02 12645   0.247E-01    0.168E-01
RMM:   3    -0.115664845724E+04   -0.76983E-04   -0.20248E-03 12490   0.817E-02    0.102E-01
RMM:   4    -0.115664838895E+04    0.68291E-04   -0.41146E-04  9844   0.242E-02    0.578E-02
RMM:   5    -0.115664837449E+04    0.14459E-04   -0.13693E-04  7260   0.162E-02    0.248E-02
RMM:   6    -0.115664838096E+04   -0.64758E-05   -0.46439E-05  7045   0.110E-02    0.179E-02
RMM:   7    -0.115664838430E+04   -0.33351E-05   -0.28221E-05  6789   0.728E-03    0.102E-02
RMM:   8    -0.115664838673E+04   -0.24277E-05   -0.16903E-05  6585   0.669E-03
  17 F= -.11566484E+04 E0= -.11566484E+04  d E =-.203739E-02  mag=    14.0000
       N       E                     dE             d eps       ncg     rms          rms(c)
DAV:   1    -0.115664632053E+04    0.20638E-02   -0.15184E+00 12712   0.143E+00    0.301E-01
RMM:   2    -0.115665004340E+04   -0.37229E-02   -0.36622E-02 12651   0.244E-01    0.168E-01
RMM:   3    -0.115665013217E+04   -0.88768E-04   -0.19651E-03 12447   0.804E-02    0.988E-02
RMM:   4    -0.115665006682E+04    0.65348E-04   -0.40225E-04  9675   0.239E-02    0.558E-02
RMM:   5    -0.115665005231E+04    0.14507E-04   -0.13473E-04  7257   0.160E-02    0.274E-02
RMM:   6    -0.115665005858E+04   -0.62678E-05   -0.46130E-05  7042   0.109E-02    0.172E-02
RMM:   7    -0.115665006183E+04   -0.32515E-05   -0.27698E-05  6788   0.724E-03    0.105E-02
RMM:   8    -0.115665006404E+04   -0.22047E-05   -0.16420E-05  6522   0.658E-03
  18 F= -.11566501E+04 E0= -.11566501E+04  d E =-.167731E-02  mag=    14.0000
