       N       E                     dE             d eps       ncg     rms          rms(c)
DAV:   1    -0.115697621885E+04   -0.11570E+04   -0.42855E-05  8688   0.285E-02    0.592E-02
RMM:   2    -0.115697621469E+04    0.41656E-05   -0.68081E-05  6906   0.128E-02    0.100E-01
RMM:   3    -0.115697621679E+04   -0.20996E-05   -0.19540E-05  6441   0.606E-03    0.114E-02
RMM:   4    -0.115697621980E+04   -0.30165E-05   -0.94739E-06  5441   0.433E-03    0.114E-02
RMM:   5    -0.115697622179E+04   -0.19845E-05   -0.61202E-06  4318   0.325E-03    0.828E-03
RMM:   6    -0.115697622367E+04   -0.18777E-05   -0.39919E-06  3809   0.332E-03    0.718E-03
RMM:   7    -0.115697622660E+04   -0.29328E-05   -0.35230E-06  3416   0.263E-03    0.713E-03
RMM:   8    -0.115697623156E+04   -0.49591E-05   -0.44890E-06  3967   0.312E-03
   1 F= -.11569762E+04 E0= -.11569762E+04  d E =-.115698E+04  mag=    14.0000
       N       E                     dE             d eps       ncg     rms          rms(c)
DAV:   1    -0.115693440637E+04    0.41820E-01   -0.10660E+01 12560   0.332E+00    0.207E+00
RMM:   2    -0.115699693506E+04   -0.62529E-01   -0.27487E-01 12309   0.692E-01    0.126E+00
RMM:   3    -0.115700535459E+04   -0.84195E-02   -0.16048E-02 12516   0.224E-01    0.540E-01
RMM:   4    -0.115700460553E+04    0.74906E-03   -0.52827E-03 13194   0.912E-02    0.283E-01
RMM:   5    -0.115700479129E+04   -0.18576E-03   -0.16188E-03 11397   0.462E-02    0.153E-01
RMM:   6    -0.115700498368E+04   -0.19239E-03   -0.28751E-04  8759   0.225E-02    0.832E-02
RMM:   7    -0.115700515780E+04   -0.17412E-03   -0.13484E-04  7850   0.144E-02    0.613E-02
RMM:   8    -0.115700543302E+04   -0.27522E-03   -0.17746E-04  7684   0.155E-02    0.525E-02
RMM:   9    -0.115700568725E+04   -0.25422E-03   -0.17242E-04  7578   0.134E-02    0.446E-02
RMM:  10    -0.115700583989E+04   -0.15265E-03   -0.92552E-05  7221   0.996E-03    0.448E-02
RMM:  11    -0.115700623445E+04   -0.39456E-03   -0.33842E-04  7885   0.195E-02    0.386E-02
RMM:  12    -0.115700690824E+04   -0.67378E-03   -0.13571E-03  9093   0.395E-02    0.337E-02
RMM:  13    -0.115700740943E+04   -0.50120E-03   -0.13767E-03  9002   0.378E-02    0.268E-02
RMM:  14    -0.115700771634E+04   -0.30691E-03   -0.85383E-04  8530   0.261E-02    0.251E-02
RMM:  15    -0.115700788722E+04   -0.17088E-03   -0.33990E-04  7525   0.162E-02    0.231E-02
RMM:  16    -0.115700805440E+04   -0.16718E-03   -0.29395E-04  7525   0.154E-02    0.217E-02
RMM:  17    -0.115700837333E+04   -0.31893E-03   -0.11128E-03  8638   0.329E-02    0.185E-02
RMM:  18    -0.115700847271E+04   -0.99380E-04   -0.28068E-04  7211   0.140E-02
   2 F= -.11570085E+04 E0= -.11570085E+04  d E =-.322412E-01  mag=    14.0000
       N       E                     dE             d eps       ncg     rms          rms(c)
DAV:   1    -0.115700765371E+04    0.71962E-03   -0.20645E+00 12720   0.150E+00    0.893E-01
RMM:   2    -0.115701718252E+04   -0.95288E-02   -0.60587E-02 12332   0.311E-01    0.603E-01
RMM:   3    -0.115701799787E+04   -0.81534E-03   -0.33206E-03 12313   0.998E-02    0.318E-01
RMM:   4    -0.115701749448E+04    0.50338E-03   -0.23204E-03 12271   0.511E-02    0.146E-01
RMM:   5    -0.115701746451E+04    0.29970E-04   -0.46755E-04 10470   0.307E-02    0.701E-02
RMM:   6    -0.115701748018E+04   -0.15670E-04   -0.69338E-05  7725   0.104E-02    0.509E-02
RMM:   7    -0.115701750589E+04   -0.25707E-04   -0.31597E-05  7236   0.760E-03    0.368E-02
RMM:   8    -0.115701755354E+04   -0.47652E-04   -0.39301E-05  7124   0.828E-03
   3 F= -.11570176E+04 E0= -.11570176E+04  d E =-.908083E-02  mag=    14.0000
       N       E                     dE             d eps       ncg     rms          rms(c)
DAV:   1    -0.115700795969E+04    0.95462E-02   -0.22624E+00 12592   0.151E+00    0.101E+00
RMM:   2    -0.115702259128E+04   -0.14632E-01   -0.51245E-02 12331   0.295E-01    0.600E-01
RMM:   3    -0.115702473640E+04   -0.21451E-02   -0.33204E-03 12417   0.102E-01    0.263E-01
RMM:   4    -0.115702471824E+04    0.18162E-04   -0.12086E-03 11321   0.422E-02    0.136E-01
RMM:   5    -0.115702479478E+04   -0.76541E-04   -0.32355E-04  8937   0.243E-02    0.732E-02
RMM:   6    -0.115702484635E+04   -0.51568E-04   -0.80694E-05  7306   0.126E-02    0.414E-02
RMM:   7    -0.115702489368E+04   -0.47336E-04   -0.41472E-05  7089   0.882E-03    0.330E-02
RMM:   8    -0.115702496930E+04   -0.75622E-04   -0.51758E-05  7014   0.891E-03
   4 F= -.11570250E+04 E0= -.11570250E+04  d E =-.741576E-02  mag=    14.0000
       N       E                     dE             d eps       ncg     rms          rms(c)
DAV:   1    -0.115702385031E+04    0.10434E-02   -0.63114E-01 12744   0.863E-01    0.445E-01
RMM:   2    -0.115702700202E+04   -0.31517E-02   -0.15786E-02 12384   0.164E-01    0.280E-01
RMM:   3    -0.115702739312E+04   -0.39110E-03   -0.94486E-04 11781   0.566E-02    0.138E-01
RMM:   4    -0.115702744277E+04   -0.49645E-04   -0.30003E-04  8722   0.235E-02    0.784E-02
RMM:   5    -0.115702752742E+04   -0.84654E-04   -0.16152E-04  7547   0.161E-02    0.549E-02
RMM:   6    -0.115702756806E+04   -0.40637E-04   -0.52951E-05  7029   0.101E-02    0.319E-02
RMM:   7    -0.115702761004E+04   -0.41983E-04   -0.29284E-05  6864   0.691E-03    0.261E-02
RMM:   8    -0.115702768520E+04   -0.75160E-04   -0.42539E-05  6832   0.792E-03
   5 F= -.11570277E+04 E0= -.11570277E+04  d E =-.271590E-02  mag=    14.0000
       N       E                     dE             d eps       ncg     rms          rms(c)
DAV:   1    -0.115702797839E+04   -0.36835E-03   -0.32051E-01 12656   0.646E-01    0.231E-01
RMM:   2    -0.115702908159E+04   -0.11032E-02   -0.81938E-03 12624   0.117E-01    0.146E-01
RMM:   3    -0.115702917378E+04   -0.92183E-04   -0.41423E-04  9557   0.399E-02    0.818E-02
RMM:   4    -0.115702921811E+04   -0.44337E-04   -0.15826E-04  7394   0.171E-02    0.430E-02
RMM:   5    -0.115702928239E+04   -0.64280E-04   -0.85780E-05  7123   0.108E-02    0.297E-02
RMM:   6    -0.115702931345E+04   -0.31055E-04   -0.30143E-05  6895   0.770E-03    0.240E-02
RMM:   7    -0.115702934498E+04   -0.31531E-04   -0.21283E-05  6550   0.566E-03    0.215E-02
RMM:   8    -0.115702941171E+04   -0.66729E-04   -0.40003E-05  6596   0.719E-03
   6 F= -.11570294E+04 E0= -.11570294E+04  d E =-.172651E-02  mag=    14.0000
       N       E                     dE             d eps       ncg     rms          rms(c)
DAV:   1    -0.115702908113E+04    0.26385E-03   -0.48231E-01 12624   0.793E-01    0.265E-01
RMM:   2    -0.115703071592E+04   -0.16348E-02   -0.11889E-02 12782   0.140E-01    0.155E-01
RMM:   3    -0.115703084195E+04   -0.12602E-03   -0.60169E-04 10203   0.470E-02    0.834E-02
RMM:   4    -0.115703087291E+04   -0.30958E-04   -0.15518E-04  7354   0.180E-02    0.426E-02
RMM:   5    -0.115703093135E+04   -0.58441E-04   -0.96412E-05  7132   0.116E-02    0.284E-02
RMM:   6    -0.115703095889E+04   -0.27545E-04   -0.32469E-05  6883   0.848E-03    0.226E-02
RMM:   7    -0.115703098392E+04   -0.25023E-04   -0.21557E-05  6630   0.587E-03    0.197E-02
RMM:   8    -0.115703102997E+04   -0.46054E-04   -0.27546E-05  6515   0.660E-03
   7 F= -.11570310E+04 E0= -.11570310E+04  d E =-.161826E-02  mag=    14.0000
       N       E                     dE             d eps       ncg     rms          rms(c)
DAV:   1    -0.115703096927E+04    0.14647E-04   -0.28218E-01 12616   0.611E-01    0.186E-01
RMM:   2    -0.115703186828E+04   -0.89901E-03   -0.69234E-03 12707   0.106E-01    0.107E-01
RMM:   3    -0.115703193286E+04   -0.64575E-04   -0.33840E-04  8609   0.364E-02    0.604E-02
RMM:   4    -0.115703196584E+04   -0.32982E-04   -0.11231E-04  7172   0.142E-02    0.341E-02
RMM:   5    -0.115703200966E+04   -0.43824E-04   -0.56332E-05  6996   0.928E-03    0.276E-02
RMM:   6    -0.115703203355E+04   -0.23886E-04   -0.24305E-05  6764   0.690E-03    0.192E-02
RMM:   7    -0.115703205903E+04   -0.25482E-04   -0.18129E-05  6181   0.552E-03    0.175E-02
RMM:   8    -0.115703210139E+04   -0.42359E-04   -0.27550E-05  6205   0.604E-03
   8 F= -.11570321E+04 E0= -.11570321E+04  d E =-.107142E-02  mag=    14.0000
       N       E                     dE             d eps       ncg     rms          rms(c)
DAV:   1    -0.115703223926E+04   -0.18023E-03   -0.18174E-01 12624   0.492E-01    0.133E-01
RMM:   2    -0.115703276847E+04   -0.52921E-03   -0.44792E-03 12572   0.850E-02    0.779E-02
RMM:   3    -0.115703279978E+04   -0.31310E-04   -0.21190E-04  7708   0.299E-02    0.462E-02
RMM:   4    -0.115703282304E+04   -0.23259E-04   -0.80223E-05  7099   0.118E-02    0.271E-02
RMM:   5    -0.115703285376E+04   -0.30719E-04   -0.38866E-05  6902   0.753E-03    0.223E-02
RMM:   6    -0.115703287135E+04   -0.17596E-04   -0.17476E-05  6535   0.580E-03    0.163E-02
RMM:   7    -0.115703288929E+04   -0.17940E-04   -0.12553E-05  5478   0.454E-03    0.150E-02
RMM:   8    -0.115703291635E+04   -0.27059E-04   -0.16588E-05  5704   0.470E-03
   9 F= -.11570329E+04 E0= -.11570329E+04  d E =-.814962E-03  mag=    14.0000
       N       E                     dE             d eps       ncg     rms          rms(c)
DAV:   1    -0.115703300707E+04   -0.11778E-03   -0.17999E-01 12472   0.488E-01    0.127E-01
RMM:   2    -0.115703352246E+04   -0.51539E-03   -0.43980E-03 12712   0.841E-02    0.737E-02
RMM:   3    -0.115703354799E+04   -0.25530E-04   -0.19978E-04  7720   0.286E-02    0.435E-02
RMM:   4    -0.115703356491E+04   -0.16921E-04   -0.68685E-05  7077   0.111E-02    0.247E-02
RMM:   5    -0.115703359072E+04   -0.25807E-04   -0.34792E-05  6858   0.730E-03    0.189E-02
RMM:   6    -0.115703360406E+04   -0.13339E-04   -0.14768E-05  6307   0.538E-03    0.147E-02
RMM:   7    -0.115703361691E+04   -0.12849E-04   -0.96810E-06  5300   0.422E-03    0.134E-02
RMM:   8    -0.115703364126E+04   -0.24352E-04   -0.15828E-05  5643   0.469E-03
  10 F= -.11570336E+04 E0= -.11570336E+04  d E =-.724907E-03  mag=    14.0000
       N       E                     dE             d eps       ncg     rms          rms(c)
DAV:   1    -0.115703372734E+04   -0.11043E-03   -0.13506E-01 12416   0.422E-01    0.108E-01
RMM:   2    -0.115703411123E+04   -0.38389E-03   -0.32970E-03 12595   0.727E-02    0.625E-02
RMM:   3    -0.115703412976E+04   -0.18529E-04   -0.14627E-04  7313   0.251E-02    0.371E-02
RMM:   4    -0.115703414389E+04   -0.14134E-04   -0.54769E-05  7000   0.972E-03    0.215E-02
RMM:   5    -0.115703416442E+04   -0.20526E-04   -0.27053E-05  6724   0.631E-03    0.172E-02
RMM:   6    -0.115703417459E+04   -0.10172E-04   -0.11328E-05  5917   0.470E-03    0.129E-02
RMM:   7    -0.115703418536E+04   -0.10777E-04   -0.77748E-06  4933   0.379E-03    0.120E-02
RMM:   8    -0.115703420242E+04   -0.17057E-04   -0.10729E-05  5262   0.391E-03
  11 F= -.11570342E+04 E0= -.11570342E+04  d E =-.561162E-03  mag=    14.0000
       N       E                     dE             d eps       ncg     rms          rms(c)
DAV:   1    -0.115703434322E+04   -0.15785E-03   -0.80449E-02 12384   0.325E-01    0.806E-02
RMM:   2    -0.115703456808E+04   -0.22486E-03   -0.19648E-03 12394   0.564E-02    0.474E-02
RMM:   3    -0.115703457972E+04   -0.11634E-04   -0.89110E-05  7036   0.201E-02    0.290E-02
RMM:   4    -0.115703459098E+04   -0.11268E-04   -0.37134E-05  6857   0.787E-03    0.172E-02
RMM:   5    -0.115703460633E+04   -0.15345E-04   -0.18278E-05  6307   0.507E-03    0.140E-02
RMM:   6    -0.115703461377E+04   -0.74379E-05   -0.68781E-06  5166   0.381E-03    0.111E-02
RMM:   7    -0.115703462164E+04   -0.78714E-05   -0.57129E-06  4284   0.325E-03    0.104E-02
RMM:   8    -0.115703463628E+04   -0.14641E-04   -0.98430E-06  4938   0.378E-03
  12 F= -.11570346E+04 E0= -.11570346E+04  d E =-.433858E-03  mag=    14.0000
       N       E                     dE             d eps       ncg     rms          rms(c)
DAV:   1    -0.115703470823E+04   -0.86596E-04   -0.11998E-01 12352   0.397E-01    0.960E-02
RMM:   2    -0.115703503479E+04   -0.32655E-03   -0.29169E-03 12653   0.685E-02    0.555E-02
RMM:   3    -0.115703504610E+04   -0.11308E-04   -0.12670E-04  7222   0.233E-02    0.333E-02
RMM:   4    -0.115703505321E+04   -0.71152E-05   -0.44146E-05  6933   0.888E-03    0.189E-02
RMM:   5    -0.115703506602E+04   -0.12810E-04   -0.20796E-05  6606   0.582E-03    0.152E-02
RMM:   6    -0.115703507189E+04   -0.58661E-05   -0.78393E-06  5605   0.420E-03    0.105E-02
RMM:   7    -0.115703507814E+04   -0.62493E-05   -0.52823E-06  4613   0.337E-03    0.974E-03
RMM:   8    -0.115703508832E+04   -0.10185E-04   -0.80065E-06  4821   0.335E-03
  13 F= -.11570351E+04 E0= -.11570351E+04  d E =-.452043E-03  mag=    14.0000
