       N       E                     dE             d eps       ncg     rms          rms(c)
DAV:   1     0.121087468268E+05    0.12109E+05   -0.42644E+05 12344   0.132E+03
DAV:   2     0.718442002270E+03   -0.11390E+05   -0.10176E+05 12312   0.380E+02
DAV:   3    -0.134497635340E+04   -0.20634E+04   -0.19856E+04 13224   0.168E+02
DAV:   4    -0.148804799534E+04   -0.14307E+03   -0.14049E+03 16208   0.471E+01
DAV:   5    -0.149760784282E+04   -0.95598E+01   -0.95102E+01 22280   0.112E+01    0.186E+02
RMM:   6    -0.115947987463E+04    0.33813E+03   -0.16412E+03 12555   0.363E+01    0.135E+02
RMM:   7    -0.114197066711E+04    0.17509E+02   -0.63028E+01 12803   0.124E+01    0.797E+01
RMM:   8    -0.114514377052E+04   -0.31731E+01   -0.26154E+01 14142   0.581E+00    0.478E+01
RMM:   9    -0.114837107180E+04   -0.32273E+01   -0.14252E+01 13166   0.439E+00    0.399E+01
RMM:  10    -0.114977797074E+04   -0.14069E+01   -0.21777E+00 15757   0.145E+00    0.232E+01
RMM:  11    -0.115052427727E+04   -0.74631E+00   -0.23921E+00 13785   0.164E+00    0.108E+01
RMM:  12    -0.115203075012E+04   -0.15065E+01   -0.15239E+00 13098   0.128E+00    0.158E+01
RMM:  13    -0.115338441736E+04   -0.13537E+01   -0.12572E+00 13152   0.130E+00    0.969E+00
RMM:  14    -0.115385514982E+04   -0.47073E+00   -0.76008E-01 13471   0.949E-01    0.514E+00
RMM:  15    -0.115389152108E+04   -0.36371E-01   -0.37546E-01 13985   0.696E-01    0.355E+00
RMM:  16    -0.115392253480E+04   -0.31014E-01   -0.16450E-01 13892   0.408E-01    0.214E+00
RMM:  17    -0.115394418894E+04   -0.21654E-01   -0.15540E-01 13540   0.433E-01    0.971E-01
RMM:  18    -0.115394869855E+04   -0.45096E-02   -0.37802E-02 15992   0.172E-01    0.687E-01
RMM:  19    -0.115394900077E+04   -0.30222E-03   -0.53992E-03 15084   0.757E-02    0.331E-01
RMM:  20    -0.115395009036E+04   -0.10896E-02   -0.32073E-03 12054   0.603E-02    0.152E-01
RMM:  21    -0.115395110957E+04   -0.10192E-02   -0.14972E-03 11640   0.315E-02    0.117E-01
RMM:  22    -0.115395221538E+04   -0.11058E-02   -0.12774E-03 10491   0.340E-02    0.923E-02
RMM:  23    -0.115395343154E+04   -0.12162E-02   -0.16862E-03 10474   0.363E-02    0.816E-02
RMM:  24    -0.115395435934E+04   -0.92780E-03   -0.14096E-03  9752   0.298E-02    0.876E-02
RMM:  25    -0.115395510780E+04   -0.74845E-03   -0.11066E-03  9400   0.251E-02    0.786E-02
RMM:  26    -0.115395657338E+04   -0.14656E-02   -0.41507E-03  9651   0.479E-02    0.561E-02
RMM:  27    -0.115395761142E+04   -0.10380E-02   -0.48213E-03 10005   0.498E-02    0.381E-02
RMM:  28    -0.115395821640E+04   -0.60498E-03   -0.31342E-03  9687   0.383E-02    0.302E-02
RMM:  29    -0.115395861836E+04   -0.40195E-03   -0.24445E-03  9345   0.337E-02    0.242E-02
RMM:  30    -0.115395881639E+04   -0.19803E-03   -0.13133E-03  9012   0.238E-02    0.180E-02
RMM:  31    -0.115395892834E+04   -0.11195E-03   -0.87069E-04  8599   0.196E-02    0.144E-02
RMM:  32    -0.115395896561E+04   -0.37277E-04   -0.25168E-04  7477   0.108E-02
   1 F= -.11539590E+04 E0= -.11539590E+04  d E =-.115396E+04  mag=    11.9992
       N       E                     dE             d eps       ncg     rms          rms(c)
DAV:   1    -0.109002886805E+04    0.63930E+02   -0.28653E+03 13992   0.449E+01    0.470E+01
RMM:   2    -0.115651947009E+04   -0.66491E+02   -0.43151E+02 16381   0.162E+01    0.543E+01
RMM:   3    -0.115500535591E+04    0.15141E+01   -0.43439E+01 13052   0.655E+00    0.304E+01
RMM:   4    -0.115101414874E+04    0.39912E+01   -0.11335E+01 13755   0.264E+00    0.184E+01
RMM:   5    -0.114987088246E+04    0.11433E+01   -0.50218E+00 13783   0.148E+00    0.151E+01
RMM:   6    -0.114996116308E+04   -0.90281E-01   -0.30536E+00 12723   0.189E+00    0.142E+01
RMM:   7    -0.114993429238E+04    0.26871E-01   -0.39163E-01 13570   0.614E-01    0.971E+00
RMM:   8    -0.114986141738E+04    0.72875E-01   -0.59094E-01 13163   0.721E-01    0.674E+00
RMM:   9    -0.115007494573E+04   -0.21353E+00   -0.23567E-01 13106   0.499E-01    0.492E+00
RMM:  10    -0.115009072278E+04   -0.15777E-01   -0.16237E-01 12737   0.403E-01    0.345E+00
RMM:  11    -0.115008267754E+04    0.80452E-02   -0.15572E-01 12904   0.404E-01    0.211E+00
RMM:  12    -0.115009651672E+04   -0.13839E-01   -0.78859E-02 13031   0.313E-01    0.145E+00
RMM:  13    -0.115010058828E+04   -0.40716E-02   -0.30209E-02 13485   0.175E-01    0.941E-01
RMM:  14    -0.115010392565E+04   -0.33374E-02   -0.18676E-02 12799   0.141E-01    0.489E-01
RMM:  15    -0.115010477997E+04   -0.85432E-03   -0.67761E-03 12613   0.757E-02    0.352E-01
RMM:  16    -0.115010553831E+04   -0.75835E-03   -0.17375E-03 11996   0.405E-02    0.283E-01
RMM:  17    -0.115010686738E+04   -0.13291E-02   -0.36785E-03 11158   0.720E-02    0.139E-01
RMM:  18    -0.115010735153E+04   -0.48415E-03   -0.11893E-03 10952   0.303E-02    0.114E-01
RMM:  19    -0.115010764242E+04   -0.29089E-03   -0.36390E-04  8400   0.210E-02    0.791E-02
RMM:  20    -0.115010784909E+04   -0.20667E-03   -0.29725E-04  8169   0.167E-02    0.599E-02
RMM:  21    -0.115010797621E+04   -0.12712E-03   -0.18412E-04  7749   0.149E-02    0.448E-02
RMM:  22    -0.115010807086E+04   -0.94642E-04   -0.14463E-04  7577   0.116E-02
   2 F= -.11501081E+04 E0= -.11501081E+04  d E =0.385089E+01  mag=    14.0022
       N       E                     dE             d eps       ncg     rms          rms(c)
DAV:   1    -0.111146033189E+04    0.38648E+02   -0.19941E+03 12416   0.313E+01    0.384E+01
RMM:   2    -0.115066504857E+04   -0.39205E+02   -0.19596E+02 13194   0.108E+01    0.328E+01
RMM:   3    -0.115327599008E+04   -0.26109E+01   -0.17385E+01 12654   0.374E+00    0.290E+01
RMM:   4    -0.115296555272E+04    0.31044E+00   -0.16687E+00 15521   0.993E-01    0.258E+01
RMM:   5    -0.115271115788E+04    0.25439E+00   -0.12384E+00 13716   0.945E-01    0.168E+01
RMM:   6    -0.115283745827E+04   -0.12630E+00   -0.12449E+00 12882   0.123E+00    0.665E+00
RMM:   7    -0.115285915897E+04   -0.21701E-01   -0.26487E-01 14132   0.502E-01    0.275E+00
RMM:   8    -0.115287313909E+04   -0.13980E-01   -0.52299E-02 17462   0.196E-01    0.136E+00
RMM:   9    -0.115288628184E+04   -0.13143E-01   -0.13534E-02 16676   0.113E-01    0.726E-01
RMM:  10    -0.115290102392E+04   -0.14742E-01   -0.11266E-02 13870   0.127E-01    0.451E-01
RMM:  11    -0.115290932744E+04   -0.83035E-02   -0.64874E-03 14325   0.843E-02    0.265E-01
RMM:  12    -0.115291621409E+04   -0.68867E-02   -0.38406E-03 13729   0.624E-02    0.224E-01
RMM:  13    -0.115292555445E+04   -0.93404E-02   -0.56665E-03 12265   0.784E-02    0.197E-01
RMM:  14    -0.115293249346E+04   -0.69390E-02   -0.50469E-03 11579   0.677E-02    0.186E-01
RMM:  15    -0.115294100616E+04   -0.85127E-02   -0.66234E-03 11022   0.803E-02    0.166E-01
RMM:  16    -0.115295232872E+04   -0.11323E-01   -0.16022E-02 11232   0.131E-01    0.148E-01
RMM:  17    -0.115295617106E+04   -0.38423E-02   -0.52482E-03 10746   0.593E-02    0.134E-01
RMM:  18    -0.115296368412E+04   -0.75131E-02   -0.11561E-02 11045   0.111E-01    0.115E-01
RMM:  19    -0.115296968719E+04   -0.60031E-02   -0.13806E-02 11209   0.116E-01    0.917E-02
RMM:  20    -0.115297295638E+04   -0.32692E-02   -0.88702E-03 10919   0.887E-02    0.782E-02
RMM:  21    -0.115297524382E+04   -0.22874E-02   -0.59661E-03 10463   0.741E-02    0.511E-02
RMM:  22    -0.115297555497E+04   -0.31115E-03   -0.97942E-03 10955   0.102E-01    0.928E-02
RMM:  23    -0.115297659891E+04   -0.10439E-02   -0.12661E-03  9123   0.446E-02    0.397E-02
RMM:  24    -0.115297694673E+04   -0.34782E-03   -0.16601E-03  9397   0.416E-02    0.292E-02
RMM:  25    -0.115297710928E+04   -0.16255E-03   -0.62106E-04  8320   0.190E-02    0.197E-02
RMM:  26    -0.115297714575E+04   -0.36468E-04   -0.16069E-04  7266   0.115E-02
   3 F= -.11529771E+04 E0= -.11529771E+04  d E =-.286907E+01  mag=    14.0000
       N       E                     dE             d eps       ncg     rms          rms(c)
DAV:   1    -0.115310435342E+04   -0.12724E+00   -0.49322E+02 12376   0.229E+01    0.971E+00
RMM:   2    -0.115475907752E+04   -0.16547E+01   -0.22180E+01 12308   0.552E+00    0.101E+01
RMM:   3    -0.115482457394E+04   -0.65496E-01   -0.13239E+00 13025   0.180E+00    0.746E+00
RMM:   4    -0.115475809190E+04    0.66482E-01   -0.40141E-01 13616   0.642E-01    0.457E+00
RMM:   5    -0.115472361175E+04    0.34480E-01   -0.18075E-01 12846   0.440E-01    0.144E+00
RMM:   6    -0.115472396350E+04   -0.35176E-03   -0.17387E-02 14204   0.166E-01    0.664E-01
RMM:   7    -0.115472256338E+04    0.14001E-02   -0.76504E-03 16918   0.667E-02    0.425E-01
RMM:   8    -0.115472396155E+04   -0.13982E-02   -0.53068E-03 13889   0.683E-02    0.173E-01
RMM:   9    -0.115472493136E+04   -0.96981E-03   -0.11560E-03 11294   0.372E-02    0.132E-01
RMM:  10    -0.115472534509E+04   -0.41373E-03   -0.37524E-04  9335   0.186E-02    0.922E-02
RMM:  11    -0.115472610028E+04   -0.75519E-03   -0.35979E-04  8831   0.201E-02    0.838E-02
RMM:  12    -0.115472723008E+04   -0.11298E-02   -0.82083E-04  9039   0.287E-02    0.680E-02
RMM:  13    -0.115472816545E+04   -0.93537E-03   -0.10529E-03  9241   0.296E-02    0.542E-02
RMM:  14    -0.115472897883E+04   -0.81338E-03   -0.13014E-03  9164   0.332E-02    0.434E-02
RMM:  15    -0.115472945926E+04   -0.48042E-03   -0.12016E-03  9136   0.298E-02    0.281E-02
RMM:  16    -0.115472965560E+04   -0.19635E-03   -0.53567E-04  8483   0.188E-02    0.229E-02
RMM:  17    -0.115472975530E+04   -0.99701E-04   -0.33286E-04  7965   0.157E-02
   4 F= -.11547298E+04 E0= -.11547298E+04  d E =-.175261E+01  mag=    14.0000
       N       E                     dE             d eps       ncg     rms          rms(c)
DAV:   1    -0.115527430422E+04   -0.54465E+00   -0.68258E+01 12832   0.803E+00    0.457E+00
RMM:   2    -0.115548080808E+04   -0.20650E+00   -0.20154E+00 12388   0.171E+00    0.311E+00
RMM:   3    -0.115548003284E+04    0.77523E-03   -0.12684E-01 12842   0.558E-01    0.147E+00
RMM:   4    -0.115545086556E+04    0.29167E-01   -0.68513E-02 13070   0.269E-01    0.741E-01
RMM:   5    -0.115544359417E+04    0.72714E-02   -0.17841E-02 12515   0.155E-01    0.358E-01
RMM:   6    -0.115544356804E+04    0.26131E-04   -0.51991E-03 14715   0.637E-02    0.283E-01
RMM:   7    -0.115544351880E+04    0.49243E-04   -0.66142E-04 12558   0.251E-02    0.180E-01
RMM:   8    -0.115544359013E+04   -0.71328E-04   -0.37012E-04 10556   0.200E-02
   5 F= -.11554436E+04 E0= -.11554436E+04  d E =-.713835E+00  mag=    14.0000
       N       E                     dE             d eps       ncg     rms          rms(c)
DAV:   1    -0.115546904872E+04   -0.25530E-01   -0.59965E+01 12752   0.688E+00    0.462E+00
RMM:   2    -0.115577846906E+04   -0.30942E+00   -0.14531E+00 12382   0.139E+00    0.313E+00
RMM:   3    -0.115581356502E+04   -0.35096E-01   -0.83928E-02 12809   0.437E-01    0.136E+00
RMM:   4    -0.115580922676E+04    0.43383E-02   -0.21129E-02 13430   0.147E-01    0.722E-01
RMM:   5    -0.115580815486E+04    0.10719E-02   -0.80837E-03 12436   0.867E-02    0.200E-01
RMM:   6    -0.115580837520E+04   -0.22034E-03   -0.11379E-03 11462   0.384E-02    0.134E-01
RMM:   7    -0.115580846298E+04   -0.87777E-04   -0.26104E-04  8730   0.158E-02    0.846E-02
RMM:   8    -0.115580860525E+04   -0.14227E-03   -0.17018E-04  8161   0.145E-02    0.536E-02
RMM:   9    -0.115580872492E+04   -0.11967E-03   -0.11669E-04  7843   0.122E-02    0.355E-02
RMM:  10    -0.115580877422E+04   -0.49303E-04   -0.54471E-05  7431   0.884E-03
   6 F= -.11558088E+04 E0= -.11558088E+04  d E =-.365184E+00  mag=    14.0000
       N       E                     dE             d eps       ncg     rms          rms(c)
DAV:   1    -0.115544733124E+04    0.36139E+00   -0.95926E+01 12624   0.822E+00    0.626E+00
RMM:   2    -0.115608737099E+04   -0.64004E+00   -0.23831E+00 12557   0.169E+00    0.460E+00
RMM:   3    -0.115615925682E+04   -0.71886E-01   -0.13124E-01 12751   0.519E-01    0.186E+00
RMM:   4    -0.115615410784E+04    0.51490E-02   -0.32675E-02 14025   0.180E-01    0.989E-01
RMM:   5    -0.115615298098E+04    0.11269E-02   -0.13768E-02 12683   0.104E-01    0.340E-01
RMM:   6    -0.115615345592E+04   -0.47494E-03   -0.21406E-03 11930   0.525E-02    0.200E-01
RMM:   7    -0.115615368573E+04   -0.22981E-03   -0.52544E-04 10088   0.213E-02    0.113E-01
RMM:   8    -0.115615394873E+04   -0.26299E-03   -0.31972E-04  8573   0.197E-02    0.625E-02
RMM:   9    -0.115615413234E+04   -0.18361E-03   -0.17819E-04  7971   0.150E-02    0.478E-02
RMM:  10    -0.115615419024E+04   -0.57899E-04   -0.69882E-05  7468   0.996E-03
   7 F= -.11561542E+04 E0= -.11561542E+04  d E =-.345416E+00  mag=    14.0000
       N       E                     dE             d eps       ncg     rms          rms(c)
DAV:   1    -0.115574464363E+04    0.40949E+00   -0.71695E+01 12544   0.781E+00    0.556E+00
RMM:   2    -0.115619036483E+04   -0.44572E+00   -0.17433E+00 12555   0.156E+00    0.413E+00
RMM:   3    -0.115625015846E+04   -0.59794E-01   -0.10310E-01 12924   0.492E-01    0.176E+00
RMM:   4    -0.115624714840E+04    0.30101E-02   -0.22777E-02 14367   0.164E-01    0.939E-01
RMM:   5    -0.115624727379E+04   -0.12539E-03   -0.11366E-02 13246   0.964E-02    0.255E-01
RMM:   6    -0.115624760694E+04   -0.33315E-03   -0.13864E-03 11704   0.438E-02    0.149E-01
RMM:   7    -0.115624779851E+04   -0.19157E-03   -0.39106E-04  9156   0.193E-02    0.950E-02
RMM:   8    -0.115624806953E+04   -0.27102E-03   -0.31968E-04  8471   0.191E-02    0.510E-02
RMM:   9    -0.115624822882E+04   -0.15929E-03   -0.17386E-04  7846   0.146E-02    0.401E-02
RMM:  10    -0.115624829621E+04   -0.67387E-04   -0.79226E-05  7384   0.988E-03
   8 F= -.11562483E+04 E0= -.11562483E+04  d E =-.941060E-01  mag=    14.0000
       N       E                     dE             d eps       ncg     rms          rms(c)
DAV:   1    -0.115625404930E+04   -0.58205E-02   -0.11807E+01 13008   0.369E+00    0.126E+00
RMM:   2    -0.115628464404E+04   -0.30595E-01   -0.29762E-01 12380   0.729E-01    0.945E-01
RMM:   3    -0.115628669357E+04   -0.20495E-02   -0.23042E-02 13402   0.223E-01    0.666E-01
RMM:   4    -0.115628578447E+04    0.90910E-03   -0.29584E-03 15017   0.616E-02    0.431E-01
RMM:   5    -0.115628540024E+04    0.38423E-03   -0.28464E-03 11973   0.477E-02    0.906E-02
RMM:   6    -0.115628540921E+04   -0.89616E-05   -0.23568E-04  8276   0.272E-02    0.668E-02
RMM:   7    -0.115628541846E+04   -0.92487E-05   -0.84776E-05  7416   0.943E-03    0.335E-02
RMM:   8    -0.115628543086E+04   -0.12407E-04   -0.48419E-05  7273   0.917E-03
   9 F= -.11562854E+04 E0= -.11562854E+04  d E =-.371347E-01  mag=    14.0000
       N       E                     dE             d eps       ncg     rms          rms(c)
DAV:   1    -0.115629118719E+04   -0.57687E-02   -0.67724E+00 12688   0.274E+00    0.876E-01
RMM:   2    -0.115630850449E+04   -0.17317E-01   -0.18016E-01 12384   0.553E-01    0.686E-01
RMM:   3    -0.115630945165E+04   -0.94717E-03   -0.14860E-02 13714   0.167E-01    0.492E-01
RMM:   4    -0.115630885135E+04    0.60030E-03   -0.19552E-03 14142   0.468E-02    0.306E-01
RMM:   5    -0.115630862189E+04    0.22946E-03   -0.15028E-03 11410   0.350E-02    0.605E-02
RMM:   6    -0.115630862403E+04   -0.21469E-05   -0.13548E-04  7628   0.182E-02    0.459E-02
RMM:   7    -0.115630863025E+04   -0.62155E-05   -0.71228E-05  7289   0.863E-03    0.294E-02
RMM:   8    -0.115630863263E+04   -0.23810E-05   -0.37122E-05  7158   0.858E-03
  10 F= -.11563086E+04 E0= -.11563086E+04  d E =-.232018E-01  mag=    14.0000
       N       E                     dE             d eps       ncg     rms          rms(c)
DAV:   1    -0.115628393764E+04    0.24693E-01   -0.11348E+01 12800   0.370E+00    0.133E+00
RMM:   2    -0.115632284376E+04   -0.38906E-01   -0.26146E-01 12884   0.642E-01    0.799E-01
RMM:   3    -0.115632596795E+04   -0.31242E-02   -0.13218E-02 13173   0.200E-01    0.384E-01
RMM:   4    -0.115632543222E+04    0.53572E-03   -0.30632E-03 15208   0.621E-02    0.208E-01
RMM:   5    -0.115632535428E+04    0.77942E-04   -0.13776E-03 12567   0.353E-02    0.553E-02
RMM:   6    -0.115632537120E+04   -0.16916E-04   -0.14010E-04  7798   0.169E-02    0.320E-02
RMM:   7    -0.115632539167E+04   -0.20472E-04   -0.82872E-05  7350   0.101E-02    0.236E-02
RMM:   8    -0.115632540983E+04   -0.18156E-04   -0.46935E-05  7156   0.921E-03
  11 F= -.11563254E+04 E0= -.11563254E+04  d E =-.167772E-01  mag=    14.0000
       N       E                     dE             d eps       ncg     rms          rms(c)
DAV:   1    -0.115630899117E+04    0.16400E-01   -0.13319E+01 12688   0.407E+00    0.967E-01
RMM:   2    -0.115634262909E+04   -0.33638E-01   -0.31831E-01 12765   0.717E-01    0.608E-01
RMM:   3    -0.115634366688E+04   -0.10378E-02   -0.17899E-02 13302   0.219E-01    0.377E-01
RMM:   4    -0.115634301571E+04    0.65117E-03   -0.32705E-03 16164   0.640E-02    0.230E-01
RMM:   5    -0.115634281996E+04    0.19575E-03   -0.18409E-03 13044   0.380E-02    0.662E-02
RMM:   6    -0.115634283701E+04   -0.17051E-04   -0.18489E-04  8305   0.194E-02    0.369E-02
RMM:   7    -0.115634285110E+04   -0.14091E-04   -0.85562E-05  7447   0.105E-02    0.255E-02
RMM:   8    -0.115634286477E+04   -0.13673E-04   -0.66536E-05  7288   0.106E-02
  12 F= -.11563429E+04 E0= -.11563429E+04  d E =-.174549E-01  mag=    14.0000
       N       E                     dE             d eps       ncg     rms          rms(c)
DAV:   1    -0.115632681549E+04    0.16036E-01   -0.10718E+01 12712   0.364E+00    0.900E-01
RMM:   2    -0.115635428703E+04   -0.27472E-01   -0.26149E-01 12704   0.657E-01    0.591E-01
RMM:   3    -0.115635531134E+04   -0.10243E-02   -0.15592E-02 13413   0.198E-01    0.389E-01
RMM:   4    -0.115635469011E+04    0.62124E-03   -0.27012E-03 15678   0.575E-02    0.226E-01
RMM:   5    -0.115635455856E+04    0.13155E-03   -0.14427E-03 12792   0.339E-02    0.548E-02
RMM:   6    -0.115635456464E+04   -0.60811E-05   -0.15124E-04  7922   0.170E-02    0.319E-02
RMM:   7    -0.115635457394E+04   -0.92945E-05   -0.83430E-05  7368   0.101E-02    0.242E-02
RMM:   8    -0.115635457929E+04   -0.53489E-05   -0.51360E-05  7203   0.960E-03
  13 F= -.11563546E+04 E0= -.11563546E+04  d E =-.117145E-01  mag=    14.0000
       N       E                     dE             d eps       ncg     rms          rms(c)
DAV:   1    -0.115634596502E+04    0.86089E-02   -0.58742E+00 12768   0.273E+00    0.648E-01
RMM:   2    -0.115636114090E+04   -0.15176E-01   -0.14117E-01 12866   0.473E-01    0.389E-01
RMM:   3    -0.115636156177E+04   -0.42087E-03   -0.70126E-03 13223   0.144E-01    0.220E-01
RMM:   4    -0.115636125550E+04    0.30627E-03   -0.14986E-03 14536   0.437E-02    0.125E-01
RMM:   5    -0.115636118905E+04    0.66450E-04   -0.66323E-04 11600   0.255E-02    0.409E-02
RMM:   6    -0.115636119799E+04   -0.89457E-05   -0.84800E-05  7381   0.139E-02    0.247E-02
RMM:   7    -0.115636120449E+04   -0.64915E-05   -0.51355E-05  7174   0.892E-03    0.173E-02
RMM:   8    -0.115636121116E+04   -0.66719E-05   -0.35434E-05  7028   0.871E-03
  14 F= -.11563612E+04 E0= -.11563612E+04  d E =-.663187E-02  mag=    14.0000
       N       E                     dE             d eps       ncg     rms          rms(c)
DAV:   1    -0.115635972147E+04    0.14830E-02   -0.18091E+00 12952   0.151E+00    0.406E-01
RMM:   2    -0.115636462497E+04   -0.49035E-02   -0.43971E-02 12797   0.268E-01    0.256E-01
RMM:   3    -0.115636483503E+04   -0.21006E-03   -0.23761E-03 12904   0.824E-02    0.144E-01
RMM:   4    -0.115636471506E+04    0.11997E-03   -0.47452E-04 10469   0.258E-02    0.803E-02
RMM:   5    -0.115636468870E+04    0.26363E-04   -0.21287E-04  7817   0.181E-02    0.283E-02
RMM:   6    -0.115636469464E+04   -0.59454E-05   -0.46810E-05  7132   0.115E-02    0.232E-02
RMM:   7    -0.115636469782E+04   -0.31833E-05   -0.27122E-05  6962   0.714E-03    0.134E-02
RMM:   8    -0.115636470080E+04   -0.29741E-05   -0.16650E-05  6763   0.671E-03
  15 F= -.11563647E+04 E0= -.11563647E+04  d E =-.348964E-02  mag=    14.0000
       N       E                     dE             d eps       ncg     rms          rms(c)
DAV:   1    -0.115635760468E+04    0.70931E-02   -0.48789E+00 12736   0.250E+00    0.560E-01
RMM:   2    -0.115636965581E+04   -0.12051E-01   -0.11596E-01 12907   0.428E-01    0.334E-01
RMM:   3    -0.115636986793E+04   -0.21212E-03   -0.56024E-03 13150   0.131E-01    0.194E-01
RMM:   4    -0.115636959922E+04    0.26871E-03   -0.12461E-03 13833   0.401E-02    0.106E-01
RMM:   5    -0.115636955043E+04    0.48793E-04   -0.47179E-04 10430   0.232E-02    0.354E-02
RMM:   6    -0.115636955872E+04   -0.82913E-05   -0.68490E-05  7267   0.130E-02    0.190E-02
RMM:   7    -0.115636956450E+04   -0.57795E-05   -0.44293E-05  7119   0.864E-03    0.147E-02
RMM:   8    -0.115636956975E+04   -0.52521E-05   -0.28589E-05  6912   0.790E-03
  16 F= -.11563696E+04 E0= -.11563696E+04  d E =-.486895E-02  mag=    14.0000
       N       E                     dE             d eps       ncg     rms          rms(c)
DAV:   1    -0.115636647505E+04    0.30894E-02   -0.24097E+00 12760   0.177E+00    0.428E-01
RMM:   2    -0.115637278233E+04   -0.63073E-02   -0.58228E-02 12897   0.305E-01    0.255E-01
RMM:   3    -0.115637297418E+04   -0.19185E-03   -0.28921E-03 13057   0.939E-02    0.137E-01
RMM:   4    -0.115637284398E+04    0.13020E-03   -0.59130E-04 11399   0.289E-02    0.778E-02
RMM:   5    -0.115637280827E+04    0.35707E-04   -0.25468E-04  8202   0.189E-02    0.312E-02
RMM:   6    -0.115637281422E+04   -0.59451E-05   -0.52636E-05  7160   0.120E-02    0.197E-02
RMM:   7    -0.115637281762E+04   -0.33984E-05   -0.31110E-05  6964   0.754E-03    0.110E-02
RMM:   8    -0.115637282004E+04   -0.24281E-05   -0.19078E-05  6809   0.698E-03
  17 F= -.11563728E+04 E0= -.11563728E+04  d E =-.325029E-02  mag=    14.0000
       N       E                     dE             d eps       ncg     rms          rms(c)
DAV:   1    -0.115637186669E+04    0.95093E-03   -0.13611E+00 12736   0.133E+00    0.265E-01
RMM:   2    -0.115637510727E+04   -0.32406E-02   -0.32504E-02 12888   0.226E-01    0.155E-01
RMM:   3    -0.115637512613E+04   -0.18858E-04   -0.15638E-03 12191   0.703E-02    0.925E-02
RMM:   4    -0.115637505690E+04    0.69222E-04   -0.33428E-04  9052   0.221E-02    0.497E-02
RMM:   5    -0.115637504864E+04    0.82670E-05   -0.11584E-04  7277   0.149E-02    0.170E-02
RMM:   6    -0.115637505364E+04   -0.50080E-05   -0.36038E-05  6972   0.957E-03    0.155E-02
RMM:   7    -0.115637505620E+04   -0.25509E-05   -0.21300E-05  6710   0.633E-03    0.857E-03
RMM:   8    -0.115637505830E+04   -0.21026E-05   -0.13400E-05  6476   0.585E-03
  18 F= -.11563751E+04 E0= -.11563751E+04  d E =-.223825E-02  mag=    14.0000
       N       E                     dE             d eps       ncg     rms          rms(c)
DAV:   1    -0.115637427773E+04    0.77847E-03   -0.11948E+00 12720   0.125E+00    0.243E-01
RMM:   2    -0.115637710674E+04   -0.28290E-02   -0.28763E-02 12842   0.213E-01    0.148E-01
RMM:   3    -0.115637711601E+04   -0.92670E-05   -0.13821E-03 11983   0.671E-02    0.892E-02
RMM:   4    -0.115637705725E+04    0.58767E-04   -0.28462E-04  8501   0.210E-02    0.492E-02
RMM:   5    -0.115637705007E+04    0.71773E-05   -0.10596E-04  7205   0.143E-02    0.193E-02
RMM:   6    -0.115637705473E+04   -0.46614E-05   -0.34062E-05  6955   0.931E-03    0.168E-02
RMM:   7    -0.115637705717E+04   -0.24386E-05   -0.19933E-05  6673   0.610E-03    0.845E-03
RMM:   8    -0.115637705894E+04   -0.17756E-05   -0.12085E-05  6407   0.557E-03
  19 F= -.11563771E+04 E0= -.11563771E+04  d E =-.200065E-02  mag=    14.0000
       N       E                     dE             d eps       ncg     rms          rms(c)
DAV:   1    -0.115637521037E+04    0.18468E-02   -0.16674E+00 12704   0.148E+00    0.289E-01
RMM:   2    -0.115637919171E+04   -0.39813E-02   -0.39852E-02 12806   0.250E-01    0.170E-01
RMM:   3    -0.115637922258E+04   -0.30871E-04   -0.19360E-03 12515   0.798E-02    0.101E-01
RMM:   4    -0.115637914428E+04    0.78296E-04   -0.40835E-04  9865   0.240E-02    0.554E-02
RMM:   5    -0.115637913103E+04    0.13249E-04   -0.13459E-04  7342   0.157E-02    0.248E-02
RMM:   6    -0.115637913627E+04   -0.52429E-05   -0.40081E-05  7022   0.102E-02    0.174E-02
RMM:   7    -0.115637913905E+04   -0.27727E-05   -0.23648E-05  6768   0.661E-03    0.947E-03
RMM:   8    -0.115637914083E+04   -0.17859E-05   -0.14283E-05  6546   0.609E-03
  20 F= -.11563791E+04 E0= -.11563791E+04  d E =-.208189E-02  mag=    14.0000
       N       E                     dE             d eps       ncg     rms          rms(c)
DAV:   1    -0.115637810800E+04    0.10311E-02   -0.10942E+00 12704   0.120E+00    0.231E-01
RMM:   2    -0.115638070855E+04   -0.26006E-02   -0.26186E-02 12731   0.202E-01    0.137E-01
RMM:   3    -0.115638072804E+04   -0.19490E-04   -0.12853E-03 11772   0.657E-02    0.818E-02
RMM:   4    -0.115638067732E+04    0.50727E-04   -0.27012E-04  8323   0.201E-02    0.449E-02
RMM:   5    -0.115638067088E+04    0.64364E-05   -0.95299E-05  7159   0.138E-02    0.256E-02
RMM:   6    -0.115638067499E+04   -0.41130E-05   -0.32710E-05  6941   0.896E-03    0.138E-02
RMM:   7    -0.115638067731E+04   -0.23161E-05   -0.19041E-05  6604   0.599E-03    0.868E-03
RMM:   8    -0.115638067879E+04   -0.14849E-05   -0.11626E-05  6192   0.535E-03
  21 F= -.11563807E+04 E0= -.11563807E+04  d E =-.153796E-02  mag=    14.0000
       N       E                     dE             d eps       ncg     rms          rms(c)
DAV:   1    -0.115637956306E+04    0.11142E-02   -0.10400E+00 12672   0.116E+00    0.225E-01
RMM:   2    -0.115638203881E+04   -0.24757E-02   -0.24780E-02 12718   0.196E-01    0.132E-01
RMM:   3    -0.115638205754E+04   -0.18737E-04   -0.11956E-03 11609   0.638E-02    0.789E-02
RMM:   4    -0.115638200910E+04    0.48446E-04   -0.24908E-04  8115   0.194E-02    0.425E-02
RMM:   5    -0.115638200434E+04    0.47545E-05   -0.86884E-05  7124   0.133E-02    0.229E-02
RMM:   6    -0.115638200817E+04   -0.38243E-05   -0.30760E-05  6903   0.855E-03    0.133E-02
RMM:   7    -0.115638201023E+04   -0.20677E-05   -0.17746E-05  6542   0.584E-03    0.786E-03
RMM:   8    -0.115638201152E+04   -0.12876E-05   -0.11035E-05  6046   0.511E-03
  22 F= -.11563820E+04 E0= -.11563820E+04  d E =-.133273E-02  mag=    14.0000
       N       E                     dE             d eps       ncg     rms          rms(c)
DAV:   1    -0.115638150570E+04    0.50453E-03   -0.72162E-01 12768   0.972E-01    0.181E-01
RMM:   2    -0.115638320046E+04   -0.16948E-02   -0.17315E-02 12734   0.163E-01    0.109E-01
RMM:   3    -0.115638320173E+04   -0.12643E-05   -0.80875E-04 10605   0.530E-02    0.665E-02
RMM:   4    -0.115638316948E+04    0.32246E-04   -0.15353E-04  7362   0.167E-02    0.366E-02
RMM:   5    -0.115638316673E+04    0.27479E-05   -0.67595E-05  7044   0.117E-02    0.278E-02
RMM:   6    -0.115638316982E+04   -0.30861E-05   -0.26319E-05  6842   0.779E-03    0.122E-02
RMM:   7    -0.115638317161E+04   -0.17863E-05   -0.14884E-05  6378   0.537E-03    0.893E-03
RMM:   8    -0.115638317257E+04   -0.96762E-06   -0.90295E-06  5666   0.460E-03
  23 F= -.11563832E+04 E0= -.11563832E+04  d E =-.116105E-02  mag=    14.0000
       N       E                     dE             d eps       ncg     rms          rms(c)
DAV:   1    -0.115638224445E+04    0.92716E-03   -0.86107E-01 12664   0.106E+00    0.200E-01
RMM:   2    -0.115638425616E+04   -0.20117E-02   -0.20395E-02 12588   0.177E-01    0.118E-01
RMM:   3    -0.115638427058E+04   -0.14418E-04   -0.10035E-03 11251   0.598E-02    0.712E-02
RMM:   4    -0.115638423203E+04    0.38549E-04   -0.20195E-04  7686   0.178E-02    0.388E-02
RMM:   5    -0.115638422852E+04    0.35043E-05   -0.70376E-05  7075   0.123E-02    0.311E-02
RMM:   6    -0.115638423193E+04   -0.34037E-05   -0.28590E-05  6874   0.795E-03    0.118E-02
RMM:   7    -0.115638423380E+04   -0.18709E-05   -0.15814E-05  6494   0.577E-03    0.955E-03
RMM:   8    -0.115638423486E+04   -0.10642E-05   -0.10017E-05  5848   0.465E-03
  24 F= -.11563842E+04 E0= -.11563842E+04  d E =-.106229E-02  mag=    14.0000
       N       E                     dE             d eps       ncg     rms          rms(c)
DAV:   1    -0.115638404015E+04    0.19365E-03   -0.44740E-01 12648   0.763E-01    0.144E-01
RMM:   2    -0.115638509321E+04   -0.10531E-02   -0.10719E-02 12743   0.127E-01    0.860E-02
RMM:   3    -0.115638508863E+04    0.45840E-05   -0.46781E-04  9098   0.407E-02    0.520E-02
RMM:   4    -0.115638506823E+04    0.20397E-04   -0.98766E-05  7103   0.139E-02    0.275E-02
RMM:   5    -0.115638506813E+04    0.10095E-06   -0.43221E-05  6937   0.938E-03    0.256E-02
RMM:   6    -0.115638507024E+04   -0.21089E-05   -0.18612E-05  6688   0.646E-03    0.865E-03
RMM:   7    -0.115638507148E+04   -0.12383E-05   -0.10266E-05  5771   0.460E-03    0.750E-03
RMM:   8    -0.115638507214E+04   -0.66620E-06   -0.61376E-06  5093   0.388E-03
  25 F= -.11563851E+04 E0= -.11563851E+04  d E =-.837280E-03  mag=    14.0000
