       N       E                     dE             d eps       ncg     rms          rms(c)
DAV:   1    -0.115714574430E+04   -0.11571E+04   -0.27561E-05  7824   0.178E-02    0.280E-02
RMM:   2    -0.115714577146E+04   -0.27162E-04   -0.46056E-05  6751   0.104E-02    0.498E-02
RMM:   3    -0.115714577997E+04   -0.85051E-05   -0.18923E-05  6260   0.521E-03    0.156E-02
RMM:   4    -0.115714578291E+04   -0.29468E-05   -0.84108E-06  5362   0.486E-03    0.204E-02
RMM:   5    -0.115714578598E+04   -0.30646E-05   -0.63126E-06  4243   0.312E-03    0.170E-02
RMM:   6    -0.115714578341E+04    0.25649E-05   -0.30404E-06  3713   0.312E-03    0.156E-02
RMM:   7    -0.115714579174E+04   -0.83291E-05   -0.29193E-06  3412   0.262E-03    0.179E-02
RMM:   8    -0.115714580015E+04   -0.84026E-05   -0.26633E-06  3387   0.271E-03
   1 F= -.11571458E+04 E0= -.11571458E+04  d E =-.115715E+04  mag=    14.0000
       N       E                     dE             d eps       ncg     rms          rms(c)
DAV:   1    -0.115714608703E+04   -0.29528E-03   -0.40702E-01 12672   0.738E-01    0.222E-01
RMM:   2    -0.115714694780E+04   -0.86078E-03   -0.12033E-02 12273   0.143E-01    0.204E-01
RMM:   3    -0.115714691389E+04    0.33915E-04   -0.59573E-04 11007   0.452E-02    0.132E-01
RMM:   4    -0.115714685690E+04    0.56984E-04   -0.32125E-04 10046   0.205E-02    0.745E-02
RMM:   5    -0.115714687172E+04   -0.14816E-04   -0.94124E-05  7516   0.145E-02    0.320E-02
RMM:   6    -0.115714689088E+04   -0.19163E-04   -0.30160E-05  7012   0.682E-03    0.243E-02
RMM:   7    -0.115714690910E+04   -0.18212E-04   -0.13631E-05  6367   0.534E-03    0.211E-02
RMM:   8    -0.115714694124E+04   -0.32145E-04   -0.17224E-05  6161   0.465E-03
   2 F= -.11571469E+04 E0= -.11571469E+04  d E =-.114109E-02  mag=    14.0000
       N       E                     dE             d eps       ncg     rms          rms(c)
DAV:   1    -0.115714758494E+04   -0.67584E-03   -0.92049E-02 12432   0.349E-01    0.109E-01
RMM:   2    -0.115714773246E+04   -0.14752E-03   -0.31078E-03 12161   0.715E-02    0.117E-01
RMM:   3    -0.115714771293E+04    0.19529E-04   -0.11960E-04  7423   0.215E-02    0.816E-02
RMM:   4    -0.115714771932E+04   -0.63896E-05   -0.11194E-04  7250   0.130E-02    0.438E-02
RMM:   5    -0.115714774403E+04   -0.24709E-04   -0.52147E-05  6896   0.839E-03    0.402E-02
RMM:   6    -0.115714775778E+04   -0.13758E-04   -0.14965E-05  5991   0.593E-03    0.205E-02
RMM:   7    -0.115714777471E+04   -0.16923E-04   -0.10426E-05  5148   0.381E-03    0.208E-02
RMM:   8    -0.115714778791E+04   -0.13206E-04   -0.54603E-06  4779   0.324E-03
   3 F= -.11571478E+04 E0= -.11571478E+04  d E =-.846673E-03  mag=    14.0000
