       N       E                     dE             d eps       ncg     rms          rms(c)
DAV:   1    -0.116514994328E+04   -0.11651E+04   -0.53631E-06  7712   0.459E-03    0.874E-03
RMM:   2    -0.116514994320E+04    0.79192E-07   -0.42769E-06  4886   0.266E-03    0.101E-02
RMM:   3    -0.116514994225E+04    0.94168E-06   -0.66759E-07  2811   0.193E-03    0.172E-03
RMM:   4    -0.116514994226E+04   -0.77125E-09   -0.11201E-08  1078   0.179E-03    0.163E-03
RMM:   5    -0.116514994227E+04   -0.13228E-07   -0.16593E-07   980   0.184E-03    0.365E-04
RMM:   6    -0.116514994227E+04   -0.13533E-08   -0.18152E-08   660   0.179E-03    0.139E-04
RMM:   7    -0.116514994227E+04   -0.10623E-08   -0.79890E-09   556   0.179E-03    0.948E-05
RMM:   8    -0.116514994227E+04   -0.52387E-09   -0.11932E-08   511   0.179E-03
   1 F= -.11651499E+04 E0= -.11651446E+04  d E =-.116515E+04  mag=     2.1766
       N       E                     dE             d eps       ncg     rms          rms(c)
DAV:   1    -0.116514999262E+04   -0.50348E-04   -0.74919E-02 12288   0.314E-01    0.880E-02
RMM:   2    -0.116515007818E+04   -0.85559E-04   -0.25000E-03 12164   0.613E-02    0.807E-02
RMM:   3    -0.116515003344E+04    0.44741E-04   -0.83527E-05  7242   0.136E-02    0.532E-02
RMM:   4    -0.116515000129E+04    0.32150E-04   -0.10812E-04  7148   0.111E-02    0.237E-02
RMM:   5    -0.116514999438E+04    0.69031E-05   -0.18425E-05  6500   0.492E-03    0.118E-02
RMM:   6    -0.116514999414E+04    0.24290E-06   -0.52940E-06  5108   0.269E-03    0.848E-03
RMM:   7    -0.116514999412E+04    0.25117E-07   -0.14603E-06  3708   0.209E-03    0.508E-03
RMM:   8    -0.116514999412E+04   -0.72032E-08   -0.16718E-07  2848   0.186E-03
   2 F= -.11651500E+04 E0= -.11651446E+04  d E =-.518514E-04  mag=     2.1758
       N       E                     dE             d eps       ncg     rms          rms(c)
DAV:   1    -0.116515030305E+04   -0.30894E-03   -0.16092E-02 12208   0.143E-01    0.448E-02
RMM:   2    -0.116515030239E+04    0.65923E-06   -0.59362E-04 11222   0.293E-02    0.427E-02
RMM:   3    -0.116515028776E+04    0.14637E-04   -0.22606E-05  6287   0.659E-03    0.282E-02
RMM:   4    -0.116515027625E+04    0.11510E-04   -0.36558E-05  6269   0.632E-03    0.117E-02
RMM:   5    -0.116515027398E+04    0.22645E-05   -0.50449E-06  4729   0.274E-03    0.747E-03
RMM:   6    -0.116515027375E+04    0.22809E-06   -0.21453E-07  2316   0.179E-03    0.475E-03
RMM:   7    -0.116515027377E+04   -0.19660E-07   -0.50589E-07  1834   0.189E-03    0.200E-03
RMM:   8    -0.116515027376E+04    0.13097E-07   -0.10935E-07  1149   0.185E-03
   3 F= -.11651503E+04 E0= -.11651449E+04  d E =-.279637E-03  mag=     2.1752
