       N       E                     dE             d eps       ncg     rms          rms(c)
DAV:   1     0.117969076711E+05    0.11797E+05   -0.41816E+05  3080   0.130E+03
DAV:   2     0.617985074139E+03   -0.11179E+05   -0.99882E+04  3072   0.372E+02
DAV:   3    -0.137138735290E+04   -0.19894E+04   -0.19195E+04  3304   0.163E+02
DAV:   4    -0.150430022356E+04   -0.13291E+03   -0.13070E+03  4088   0.431E+01
DAV:   5    -0.151215863431E+04   -0.78584E+01   -0.78276E+01  5520   0.920E+00    0.180E+02
RMM:   6    -0.116828758385E+04    0.34387E+03   -0.15734E+03  3125   0.338E+01    0.953E+01
RMM:   7    -0.115531357527E+04    0.12974E+02   -0.60105E+01  3196   0.969E+00    0.562E+01
RMM:   8    -0.116365376377E+04   -0.83402E+01   -0.35962E+01  3137   0.662E+00    0.227E+01
RMM:   9    -0.116414452732E+04   -0.49076E+00   -0.75505E+00  3218   0.228E+00    0.124E+01
RMM:  10    -0.116275879041E+04    0.13857E+01   -0.17985E+00  3248   0.113E+00    0.718E+00
RMM:  11    -0.116378970448E+04   -0.10309E+01   -0.20066E+00  3166   0.116E+00    0.482E+00
RMM:  12    -0.116439139379E+04   -0.60169E+00   -0.61935E-01  3371   0.677E-01    0.322E+00
RMM:  13    -0.116476661244E+04   -0.37522E+00   -0.33494E-01  3253   0.506E-01    0.185E+00
RMM:  14    -0.116488809680E+04   -0.12148E+00   -0.14495E-01  3301   0.340E-01    0.104E+00
RMM:  15    -0.116492648914E+04   -0.38392E-01   -0.70525E-02  3318   0.229E-01    0.652E-01
RMM:  16    -0.116492991461E+04   -0.34255E-02   -0.17544E-02  3579   0.116E-01    0.248E-01
RMM:  17    -0.116493142020E+04   -0.15056E-02   -0.56167E-03  3787   0.597E-02    0.178E-01
RMM:  18    -0.116493160684E+04   -0.18664E-03   -0.12340E-03  3324   0.269E-02    0.102E-01
RMM:  19    -0.116493162729E+04   -0.20456E-04   -0.44702E-04  2610   0.160E-02
   1 F= -.11649316E+04 E0= -.11649231E+04  d E =-.116493E+04  mag=     1.9496
       N       E                     dE             d eps       ncg     rms          rms(c)
DAV:   1    -0.116500987054E+04   -0.78264E-01   -0.17123E+02  3552   0.147E+01    0.495E+00
RMM:   2    -0.116545017713E+04   -0.44031E+00   -0.72968E+00  3072   0.313E+00    0.533E+00
RMM:   3    -0.116539107866E+04    0.59098E-01   -0.36315E-01  3272   0.730E-01    0.342E+00
RMM:   4    -0.116538816481E+04    0.29139E-02   -0.16742E-01  3413   0.390E-01    0.236E+00
RMM:   5    -0.116536716507E+04    0.21000E-01   -0.78068E-02  3286   0.250E-01    0.751E-01
RMM:   6    -0.116536489291E+04    0.22722E-02   -0.13473E-02  3585   0.939E-02    0.507E-01
RMM:   7    -0.116536529319E+04   -0.40028E-03   -0.70918E-03  3467   0.667E-02    0.236E-01
RMM:   8    -0.116536582178E+04   -0.52859E-03   -0.31452E-03  3357   0.488E-02    0.123E-01
RMM:   9    -0.116536597114E+04   -0.14936E-03   -0.92039E-04  3038   0.227E-02    0.772E-02
RMM:  10    -0.116536606346E+04   -0.92326E-04   -0.31951E-04  2391   0.137E-02
   2 F= -.11653661E+04 E0= -.11653539E+04  d E =-.434436E+00  mag=     1.9861
       N       E                     dE             d eps       ncg     rms          rms(c)
DAV:   1    -0.116536668659E+04   -0.71545E-03   -0.22951E-01  3352   0.552E-01    0.206E-01
RMM:   2    -0.116536775724E+04   -0.10707E-02   -0.90235E-03  3056   0.114E-01    0.201E-01
RMM:   3    -0.116536774472E+04    0.12526E-04   -0.55522E-04  2594   0.267E-02    0.142E-01
RMM:   4    -0.116536794703E+04   -0.20231E-03   -0.85267E-04  2657   0.225E-02    0.869E-02
RMM:   5    -0.116536797639E+04   -0.29360E-04   -0.39008E-04  2219   0.154E-02    0.319E-02
RMM:   6    -0.116536799623E+04   -0.19840E-04   -0.91226E-05  1914   0.795E-03    0.239E-02
RMM:   7    -0.116536800534E+04   -0.91133E-05   -0.36896E-05  1815   0.593E-03    0.192E-02
RMM:   8    -0.116536801345E+04   -0.81139E-05   -0.35177E-05  1797   0.520E-03
   3 F= -.11653680E+04 E0= -.11653568E+04  d E =-.436386E+00  mag=     1.9893
       N       E                     dE             d eps       ncg     rms          rms(c)
DAV:   1    -0.116549162458E+04   -0.12362E+00   -0.60611E+01  3280   0.918E+00    0.266E+00
RMM:   2    -0.116562002572E+04   -0.12840E+00   -0.18318E+00  3073   0.167E+00    0.215E+00
RMM:   3    -0.116560792247E+04    0.12103E-01   -0.80165E-02  3323   0.367E-01    0.134E+00
RMM:   4    -0.116560231555E+04    0.56069E-02   -0.38478E-02  3425   0.189E-01    0.807E-01
RMM:   5    -0.116559815385E+04    0.41617E-02   -0.11024E-02  3425   0.981E-02    0.191E-01
RMM:   6    -0.116559821817E+04   -0.64322E-04   -0.21561E-03  3895   0.374E-02    0.144E-01
RMM:   7    -0.116559822800E+04   -0.98294E-05   -0.77398E-04  3097   0.205E-02    0.750E-02
RMM:   8    -0.116559826927E+04   -0.41270E-04   -0.40977E-04  2598   0.166E-02
   4 F= -.11655983E+04 E0= -.11655946E+04  d E =-.230256E+00  mag=     1.9761
       N       E                     dE             d eps       ncg     rms          rms(c)
DAV:   1    -0.116559957417E+04   -0.13462E-02   -0.80796E-01  3456   0.106E+00    0.298E-01
RMM:   2    -0.116560122025E+04   -0.16461E-02   -0.25296E-02  3073   0.194E-01    0.259E-01
RMM:   3    -0.116560104352E+04    0.17673E-03   -0.12089E-03  3174   0.437E-02    0.166E-01
RMM:   4    -0.116560096927E+04    0.74256E-04   -0.59794E-04  2776   0.230E-02    0.111E-01
RMM:   5    -0.116560088622E+04    0.83048E-04   -0.16746E-04  2101   0.133E-02    0.240E-02
RMM:   6    -0.116560088702E+04   -0.80260E-06   -0.41007E-05  1830   0.698E-03    0.153E-02
RMM:   7    -0.116560088751E+04   -0.49089E-06   -0.19599E-05  1762   0.491E-03    0.106E-02
RMM:   8    -0.116560088805E+04   -0.53631E-06   -0.10289E-05  1635   0.357E-03
   5 F= -.11656009E+04 E0= -.11655974E+04  d E =-.232875E+00  mag=     1.9727
       N       E                     dE             d eps       ncg     rms          rms(c)
DAV:   1    -0.116559769839E+04    0.31891E-02   -0.43080E+01  3200   0.768E+00    0.223E+00
RMM:   2    -0.116570229344E+04   -0.10460E+00   -0.14019E+00  3072   0.145E+00    0.234E+00
RMM:   3    -0.116569208792E+04    0.10206E-01   -0.54544E-02  3495   0.303E-01    0.167E+00
RMM:   4    -0.116569172314E+04    0.36478E-03   -0.27254E-02  3414   0.154E-01    0.983E-01
RMM:   5    -0.116568510129E+04    0.66218E-02   -0.10669E-02  3391   0.922E-02    0.171E-01
RMM:   6    -0.116568494522E+04    0.15607E-03   -0.14250E-03  3573   0.311E-02    0.119E-01
RMM:   7    -0.116568487883E+04    0.66393E-04   -0.55788E-04  2895   0.185E-02    0.795E-02
RMM:   8    -0.116568487386E+04    0.49669E-05   -0.35823E-04  2431   0.166E-02
   6 F= -.11656849E+04 E0= -.11656808E+04  d E =-.839858E-01  mag=     1.9361
       N       E                     dE             d eps       ncg     rms          rms(c)
DAV:   1    -0.116568498131E+04   -0.10248E-03   -0.20359E-01  3408   0.528E-01    0.154E-01
RMM:   2    -0.116568547090E+04   -0.48959E-03   -0.66232E-03  3046   0.998E-02    0.159E-01
RMM:   3    -0.116568541313E+04    0.57766E-04   -0.19525E-04  2009   0.210E-02    0.114E-01
RMM:   4    -0.116568540142E+04    0.11720E-04   -0.10013E-04  1827   0.115E-02    0.550E-02
RMM:   5    -0.116568538052E+04    0.20891E-04   -0.33907E-05  1814   0.631E-03    0.109E-02
RMM:   6    -0.116568538022E+04    0.30073E-06   -0.45542E-06  1418   0.282E-03    0.654E-03
RMM:   7    -0.116568538015E+04    0.71610E-07   -0.50368E-07   805   0.187E-03    0.391E-03
RMM:   8    -0.116568538023E+04   -0.73735E-07   -0.68078E-07   762   0.199E-03
   7 F= -.11656854E+04 E0= -.11656814E+04  d E =-.844922E-01  mag=     1.9342
       N       E                     dE             d eps       ncg     rms          rms(c)
DAV:   1    -0.116568494685E+04    0.43331E-03   -0.23553E+01  3184   0.580E+00    0.144E+00
RMM:   2    -0.116573957737E+04   -0.54631E-01   -0.71522E-01  3074   0.104E+00    0.137E+00
RMM:   3    -0.116573570450E+04    0.38729E-02   -0.28466E-02  3403   0.228E-01    0.882E-01
RMM:   4    -0.116573498900E+04    0.71551E-03   -0.10710E-02  3449   0.968E-02    0.608E-01
RMM:   5    -0.116573297697E+04    0.20120E-02   -0.40948E-03  3374   0.569E-02    0.109E-01
RMM:   6    -0.116573293881E+04    0.38166E-04   -0.68807E-04  3128   0.232E-02    0.763E-02
RMM:   7    -0.116573293509E+04    0.37137E-05   -0.23526E-04  2371   0.121E-02    0.457E-02
RMM:   8    -0.116573295120E+04   -0.16106E-04   -0.16382E-04  2042   0.109E-02
   8 F= -.11657330E+04 E0= -.11657292E+04  d E =-.475710E-01  mag=     1.9542
       N       E                     dE             d eps       ncg     rms          rms(c)
DAV:   1    -0.116573234497E+04    0.59012E-03   -0.83883E-01  3384   0.110E+00    0.269E-01
RMM:   2    -0.116573433359E+04   -0.19886E-02   -0.25749E-02  3074   0.196E-01    0.258E-01
RMM:   3    -0.116573418577E+04    0.14782E-03   -0.10700E-03  3134   0.435E-02    0.166E-01
RMM:   4    -0.116573415860E+04    0.27167E-04   -0.41933E-04  2557   0.190E-02    0.113E-01
RMM:   5    -0.116573409023E+04    0.68369E-04   -0.14564E-04  2029   0.127E-02    0.202E-02
RMM:   6    -0.116573409091E+04   -0.68019E-06   -0.36146E-05  1789   0.649E-03    0.136E-02
RMM:   7    -0.116573409177E+04   -0.85846E-06   -0.16713E-05  1742   0.480E-03    0.934E-03
RMM:   8    -0.116573409274E+04   -0.97168E-06   -0.96291E-06  1594   0.335E-03
   9 F= -.11657341E+04 E0= -.11657303E+04  d E =-.487125E-01  mag=     1.9616
       N       E                     dE             d eps       ncg     rms          rms(c)
DAV:   1    -0.116572359705E+04    0.10495E-01   -0.18682E+01  3184   0.508E+00    0.111E+00
RMM:   2    -0.116576372947E+04   -0.40132E-01   -0.51726E-01  3074   0.890E-01    0.101E+00
RMM:   3    -0.116576102274E+04    0.27067E-02   -0.20769E-02  3394   0.194E-01    0.640E-01
RMM:   4    -0.116575964856E+04    0.13742E-02   -0.79290E-03  3409   0.832E-02    0.420E-01
RMM:   5    -0.116575841165E+04    0.12369E-02   -0.29606E-03  3327   0.497E-02    0.823E-02
RMM:   6    -0.116575840563E+04    0.60216E-05   -0.37523E-04  2637   0.180E-02    0.700E-02
RMM:   7    -0.116575840893E+04   -0.32992E-05   -0.17571E-04  2110   0.117E-02    0.418E-02
RMM:   8    -0.116575841904E+04   -0.10110E-04   -0.12188E-04  1894   0.107E-02
  10 F= -.11657584E+04 E0= -.11657548E+04  d E =-.243263E-01  mag=     1.9619
       N       E                     dE             d eps       ncg     rms          rms(c)
DAV:   1    -0.116575841787E+04   -0.89383E-05   -0.47532E-03  3320   0.817E-02    0.186E-02
RMM:   2    -0.116575842862E+04   -0.10753E-04   -0.14055E-04  1807   0.146E-02    0.214E-02
RMM:   3    -0.116575842979E+04   -0.11674E-05   -0.21225E-05  1717   0.605E-03    0.119E-02
RMM:   4    -0.116575843062E+04   -0.83116E-06   -0.11967E-05  1628   0.375E-03    0.117E-02
RMM:   5    -0.116575843068E+04   -0.61846E-07   -0.64048E-06  1496   0.322E-03    0.255E-03
RMM:   6    -0.116575843104E+04   -0.35968E-06   -0.33268E-06  1017   0.239E-03    0.230E-03
RMM:   7    -0.116575843110E+04   -0.55530E-07   -0.82984E-07   678   0.216E-03    0.132E-03
RMM:   8    -0.116575843120E+04   -0.98240E-07   -0.11100E-06   431   0.204E-03
  11 F= -.11657584E+04 E0= -.11657548E+04  d E =-.243385E-01  mag=     1.9624
       N       E                     dE             d eps       ncg     rms          rms(c)
DAV:   1    -0.116575417811E+04    0.42530E-02   -0.88059E+00  3232   0.341E+00    0.644E-01
RMM:   2    -0.116577395603E+04   -0.19778E-01   -0.22832E-01  3074   0.582E-01    0.546E-01
RMM:   3    -0.116577312794E+04    0.82809E-03   -0.90470E-03  3255   0.129E-01    0.357E-01
RMM:   4    -0.116577261178E+04    0.51616E-03   -0.29859E-03  3233   0.505E-02    0.241E-01
RMM:   5    -0.116577219445E+04    0.41732E-03   -0.11662E-03  2974   0.306E-02    0.419E-02
RMM:   6    -0.116577218706E+04    0.73922E-05   -0.87419E-05  1938   0.106E-02    0.343E-02
RMM:   7    -0.116577218604E+04    0.10240E-05   -0.48886E-05  1815   0.766E-03    0.199E-02
RMM:   8    -0.116577218685E+04   -0.81013E-06   -0.43125E-05  1782   0.693E-03
  12 F= -.11657722E+04 E0= -.11657684E+04  d E =-.137557E-01  mag=     1.9492
       N       E                     dE             d eps       ncg     rms          rms(c)
DAV:   1    -0.116577011878E+04    0.20673E-02   -0.15578E+00  3232   0.143E+00    0.270E-01
RMM:   2    -0.116577362919E+04   -0.35104E-02   -0.40565E-02  3074   0.245E-01    0.231E-01
RMM:   3    -0.116577347964E+04    0.14954E-03   -0.16528E-03  3182   0.546E-02    0.152E-01
RMM:   4    -0.116577338486E+04    0.94778E-04   -0.53352E-04  2766   0.216E-02    0.102E-01
RMM:   5    -0.116577330780E+04    0.77069E-04   -0.18269E-04  2095   0.142E-02    0.194E-02
RMM:   6    -0.116577331031E+04   -0.25122E-05   -0.33666E-05  1778   0.694E-03    0.127E-02
RMM:   7    -0.116577331109E+04   -0.78378E-06   -0.18688E-05  1694   0.490E-03    0.103E-02
RMM:   8    -0.116577331155E+04   -0.45600E-06   -0.11917E-05  1630   0.389E-03
  13 F= -.11657733E+04 E0= -.11657694E+04  d E =-.148804E-01  mag=     1.9410
       N       E                     dE             d eps       ncg     rms          rms(c)
DAV:   1    -0.116576186980E+04    0.11441E-01   -0.10003E+01  3216   0.367E+00    0.644E-01
RMM:   2    -0.116578476171E+04   -0.22892E-01   -0.25440E-01  3074   0.608E-01    0.518E-01
RMM:   3    -0.116578402785E+04    0.73386E-03   -0.10086E-02  3177   0.141E-01    0.346E-01
RMM:   4    -0.116578372810E+04    0.29975E-03   -0.30981E-03  3493   0.511E-02    0.242E-01
RMM:   5    -0.116578329015E+04    0.43795E-03   -0.12688E-03  3205   0.304E-02    0.437E-02
RMM:   6    -0.116578328260E+04    0.75435E-05   -0.12349E-04  1993   0.109E-02    0.345E-02
RMM:   7    -0.116578328112E+04    0.14868E-05   -0.60858E-05  1824   0.797E-03    0.211E-02
RMM:   8    -0.116578328307E+04   -0.19566E-05   -0.48571E-05  1789   0.703E-03
  14 F= -.11657833E+04 E0= -.11657792E+04  d E =-.997152E-02  mag=     1.9500
       N       E                     dE             d eps       ncg     rms          rms(c)
DAV:   1    -0.116577920362E+04    0.40775E-02   -0.25420E+00  3200   0.185E+00    0.324E-01
RMM:   2    -0.116578504525E+04   -0.58416E-02   -0.64875E-02  3074   0.307E-01    0.261E-01
RMM:   3    -0.116578485352E+04    0.19172E-03   -0.26159E-03  3117   0.716E-02    0.174E-01
RMM:   4    -0.116578477474E+04    0.78788E-04   -0.79276E-04  3101   0.264E-02    0.122E-01
RMM:   5    -0.116578466623E+04    0.10851E-03   -0.32908E-04  2503   0.166E-02    0.228E-02
RMM:   6    -0.116578466568E+04    0.54101E-06   -0.44527E-05  1795   0.742E-03    0.155E-02
RMM:   7    -0.116578466651E+04   -0.82984E-06   -0.26276E-05  1745   0.554E-03    0.108E-02
RMM:   8    -0.116578466768E+04   -0.11654E-05   -0.18959E-05  1677   0.442E-03
  15 F= -.11657847E+04 E0= -.11657805E+04  d E =-.113561E-01  mag=     1.9564
       N       E                     dE             d eps       ncg     rms          rms(c)
DAV:   1    -0.116576865575E+04    0.16011E-01   -0.10849E+01  3168   0.377E+00    0.731E-01
RMM:   2    -0.116579242108E+04   -0.23765E-01   -0.27187E-01  3074   0.625E-01    0.597E-01
RMM:   3    -0.116579139536E+04    0.10257E-02   -0.10911E-02  3091   0.148E-01    0.390E-01
RMM:   4    -0.116579091848E+04    0.47688E-03   -0.39491E-03  3383   0.576E-02    0.257E-01
RMM:   5    -0.116579044777E+04    0.47071E-03   -0.13217E-03  3133   0.320E-02    0.528E-02
RMM:   6    -0.116579044688E+04    0.88652E-06   -0.13034E-04  2053   0.117E-02    0.401E-02
RMM:   7    -0.116579044623E+04    0.64795E-06   -0.69114E-05  1836   0.861E-03    0.254E-02
RMM:   8    -0.116579044901E+04   -0.27712E-05   -0.57306E-05  1809   0.763E-03
  16 F= -.11657904E+04 E0= -.11657861E+04  d E =-.578133E-02  mag=     1.9658
       N       E                     dE             d eps       ncg     rms          rms(c)
DAV:   1    -0.116579010378E+04    0.34246E-03   -0.31125E-01  3280   0.639E-01    0.125E-01
RMM:   2    -0.116579078043E+04   -0.67666E-03   -0.77334E-03  3058   0.106E-01    0.100E-01
RMM:   3    -0.116579075094E+04    0.29498E-04   -0.26093E-04  2068   0.249E-02    0.661E-02
RMM:   4    -0.116579073636E+04    0.14576E-04   -0.87572E-05  1735   0.104E-02    0.409E-02
RMM:   5    -0.116579072633E+04    0.10032E-04   -0.29664E-05  1695   0.617E-03    0.959E-03
RMM:   6    -0.116579072684E+04   -0.50916E-06   -0.58137E-06  1444   0.303E-03    0.585E-03
RMM:   7    -0.116579072682E+04    0.21639E-07   -0.14125E-06   875   0.204E-03    0.383E-03
RMM:   8    -0.116579072675E+04    0.65207E-07   -0.42450E-07   639   0.193E-03
  17 F= -.11657907E+04 E0= -.11657865E+04  d E =-.605907E-02  mag=     1.9654
       N       E                     dE             d eps       ncg     rms          rms(c)
DAV:   1    -0.116578373437E+04    0.69924E-02   -0.53466E+00  3216   0.268E+00    0.475E-01
RMM:   2    -0.116579534913E+04   -0.11615E-01   -0.13264E-01  3074   0.441E-01    0.384E-01
RMM:   3    -0.116579491629E+04    0.43285E-03   -0.52735E-03  3076   0.104E-01    0.250E-01
RMM:   4    -0.116579469310E+04    0.22319E-03   -0.17110E-03  3225   0.380E-02    0.177E-01
RMM:   5    -0.116579446394E+04    0.22916E-03   -0.66124E-04  2827   0.226E-02    0.370E-02
RMM:   6    -0.116579446267E+04    0.12768E-05   -0.74055E-05  1884   0.940E-03    0.279E-02
RMM:   7    -0.116579446306E+04   -0.39223E-06   -0.36705E-05  1788   0.665E-03    0.172E-02
RMM:   8    -0.116579446539E+04   -0.23291E-05   -0.27909E-05  1750   0.569E-03
  18 F= -.11657945E+04 E0= -.11657904E+04  d E =-.373864E-02  mag=     1.9625
       N       E                     dE             d eps       ncg     rms          rms(c)
DAV:   1    -0.116579446290E+04    0.16206E-06   -0.27019E-03  3280   0.602E-02    0.124E-02
RMM:   2    -0.116579446849E+04   -0.55980E-05   -0.66109E-05  1678   0.106E-02    0.920E-03
RMM:   3    -0.116579446935E+04   -0.85500E-06   -0.73150E-06  1527   0.394E-03    0.508E-03
RMM:   4    -0.116579446932E+04    0.30574E-07   -0.11915E-06   784   0.195E-03    0.385E-03
RMM:   5    -0.116579446920E+04    0.11553E-06   -0.39262E-07   563   0.177E-03    0.131E-03
RMM:   6    -0.116579446920E+04    0.48312E-08   -0.10254E-07   342   0.176E-03    0.450E-04
RMM:   7    -0.116579446920E+04   -0.72760E-09   -0.41026E-08   281   0.176E-03    0.278E-04
RMM:   8    -0.116579446920E+04   -0.11059E-08   -0.91274E-09   245   0.175E-03
  19 F= -.11657945E+04 E0= -.11657904E+04  d E =-.374245E-02  mag=     1.9622
       N       E                     dE             d eps       ncg     rms          rms(c)
DAV:   1    -0.116579139210E+04    0.30771E-02   -0.25411E+00  3232   0.187E+00    0.366E-01
RMM:   2    -0.116579715336E+04   -0.57613E-02   -0.66946E-02  3074   0.319E-01    0.316E-01
RMM:   3    -0.116579693690E+04    0.21646E-03   -0.26294E-03  3120   0.721E-02    0.209E-01
RMM:   4    -0.116579686282E+04    0.74088E-04   -0.94243E-04  2965   0.283E-02    0.140E-01
RMM:   5    -0.116579671842E+04    0.14440E-03   -0.32650E-04  2456   0.168E-02    0.237E-02
RMM:   6    -0.116579671852E+04   -0.10063E-06   -0.45420E-05  1791   0.757E-03    0.164E-02
RMM:   7    -0.116579671905E+04   -0.52885E-06   -0.21953E-05  1749   0.545E-03    0.112E-02
RMM:   8    -0.116579672019E+04   -0.11448E-05   -0.16208E-05  1676   0.437E-03
  20 F= -.11657967E+04 E0= -.11657926E+04  d E =-.225099E-02  mag=     1.9554
       N       E                     dE             d eps       ncg     rms          rms(c)
DAV:   1    -0.116579671511E+04    0.39417E-05   -0.22272E-03  3248   0.554E-02    0.119E-02
RMM:   2    -0.116579671965E+04   -0.45483E-05   -0.55463E-05  1643   0.100E-02    0.104E-02
RMM:   3    -0.116579672031E+04   -0.65519E-06   -0.59626E-06  1532   0.367E-03    0.559E-03
RMM:   4    -0.116579672026E+04    0.48676E-07   -0.52531E-07   667   0.173E-03    0.439E-03
RMM:   5    -0.116579672011E+04    0.15264E-06   -0.77666E-08   415   0.160E-03    0.141E-03
RMM:   6    -0.116579672010E+04    0.46566E-08   -0.57011E-08   304   0.163E-03    0.550E-04
RMM:   7    -0.116579672010E+04    0.87311E-09   -0.67768E-09   219   0.162E-03    0.319E-04
RMM:   8    -0.116579672010E+04    0.12806E-08   -0.21932E-09   194   0.162E-03
  21 F= -.11657967E+04 E0= -.11657926E+04  d E =-.225090E-02  mag=     1.9547
       N       E                     dE             d eps       ncg     rms          rms(c)
DAV:   1    -0.116579538150E+04    0.13386E-02   -0.12117E+00  3232   0.129E+00    0.260E-01
RMM:   2    -0.116579809718E+04   -0.27157E-02   -0.31538E-02  3074   0.219E-01    0.212E-01
RMM:   3    -0.116579798257E+04    0.11462E-03   -0.12902E-03  3061   0.502E-02    0.134E-01
RMM:   4    -0.116579792983E+04    0.52739E-04   -0.39788E-04  2503   0.191E-02    0.938E-02
RMM:   5    -0.116579787577E+04    0.54059E-04   -0.14490E-04  2003   0.133E-02    0.211E-02
RMM:   6    -0.116579787914E+04   -0.33760E-05   -0.34535E-05  1750   0.679E-03    0.112E-02
RMM:   7    -0.116579788041E+04   -0.12704E-05   -0.16675E-05  1675   0.489E-03    0.103E-02
RMM:   8    -0.116579788132E+04   -0.90619E-06   -0.10194E-05  1517   0.358E-03
  22 F= -.11657979E+04 E0= -.11657936E+04  d E =-.116122E-02  mag=     1.9550
       N       E                     dE             d eps       ncg     rms          rms(c)
DAV:   1    -0.116579783991E+04    0.40507E-04   -0.30894E-02  3152   0.206E-01    0.414E-02
RMM:   2    -0.116579791245E+04   -0.72540E-04   -0.83220E-04  2947   0.352E-02    0.346E-02
RMM:   3    -0.116579790836E+04    0.40836E-05   -0.28956E-05  1723   0.846E-03    0.221E-02
RMM:   4    -0.116579790775E+04    0.60855E-06   -0.13592E-05  1680   0.402E-03    0.150E-02
RMM:   5    -0.116579790677E+04    0.98746E-06   -0.54428E-06  1350   0.277E-03    0.389E-03
RMM:   6    -0.116579790683E+04   -0.65804E-07   -0.12174E-06   773   0.203E-03    0.190E-03
RMM:   7    -0.116579790685E+04   -0.13068E-07   -0.19029E-07   448   0.180E-03    0.147E-03
RMM:   8    -0.116579790684E+04    0.86438E-08   -0.31167E-08   372   0.178E-03
  23 F= -.11657979E+04 E0= -.11657936E+04  d E =-.118674E-02  mag=     1.9552
       N       E                     dE             d eps       ncg     rms          rms(c)
DAV:   1    -0.116579718665E+04    0.72020E-03   -0.79829E-01  3200   0.103E+00    0.205E-01
RMM:   2    -0.116579888992E+04   -0.17033E-02   -0.20349E-02  3074   0.172E-01    0.175E-01
RMM:   3    -0.116579879252E+04    0.97399E-04   -0.80469E-04  2863   0.405E-02    0.114E-01
RMM:   4    -0.116579873823E+04    0.54294E-04   -0.29731E-04  2291   0.167E-02    0.713E-02
RMM:   5    -0.116579870300E+04    0.35229E-04   -0.85969E-05  1948   0.102E-02    0.167E-02
RMM:   6    -0.116579870508E+04   -0.20738E-05   -0.21399E-05  1706   0.539E-03    0.101E-02
RMM:   7    -0.116579870567E+04   -0.59638E-06   -0.10279E-05  1599   0.384E-03    0.826E-03
RMM:   8    -0.116579870614E+04   -0.46520E-06   -0.61245E-06  1450   0.298E-03
  24 F= -.11657987E+04 E0= -.11657945E+04  d E =-.799299E-03  mag=     1.9543
       N       E                     dE             d eps       ncg     rms          rms(c)
DAV:   1    -0.116579867036E+04    0.35315E-04   -0.14560E-02  3216   0.139E-01    0.281E-02
RMM:   2    -0.116579869802E+04   -0.27664E-04   -0.34198E-04  2026   0.234E-02    0.273E-02
RMM:   3    -0.116579869858E+04   -0.55527E-06   -0.21013E-05  1617   0.743E-03    0.147E-02
RMM:   4    -0.116579869804E+04    0.53861E-06   -0.49768E-06  1324   0.293E-03    0.138E-02
RMM:   5    -0.116579869673E+04    0.13038E-05   -0.97830E-07   772   0.202E-03    0.418E-03
RMM:   6    -0.116579869679E+04   -0.59124E-07   -0.10615E-06   515   0.188E-03    0.146E-03
RMM:   7    -0.116579869678E+04    0.10579E-07   -0.11010E-08   233   0.147E-03    0.102E-03
RMM:   8    -0.116579869677E+04    0.11045E-07   -0.16368E-08   226   0.144E-03
  25 F= -.11657987E+04 E0= -.11657945E+04  d E =-.789933E-03  mag=     1.9543
