       N       E                     dE             d eps       ncg     rms          rms(c)
DAV:   1    -0.116358940992E+04   -0.11636E+04   -0.17580E-05  4424   0.122E-02    0.197E-02
RMM:   2    -0.116358941637E+04   -0.64474E-05   -0.23033E-05  3371   0.663E-03    0.202E-02
RMM:   3    -0.116358941596E+04    0.40895E-06   -0.69142E-06  2707   0.330E-03    0.779E-03
RMM:   4    -0.116358941835E+04   -0.23910E-05   -0.28900E-06  2041   0.300E-03    0.767E-03
RMM:   5    -0.116358941544E+04    0.29117E-05   -0.12729E-06  1628   0.233E-03    0.803E-03
RMM:   6    -0.116358942143E+04   -0.59881E-05   -0.19956E-06  1621   0.274E-03    0.725E-03
RMM:   7    -0.116358943702E+04   -0.15592E-04   -0.14611E-05  2448   0.457E-03    0.658E-03
RMM:   8    -0.116358945807E+04   -0.21046E-04   -0.48638E-05  2777   0.716E-03
   1 F= -.11635895E+04 E0= -.11635895E+04  d E =-.116359E+04  mag=     4.0000
       N       E                     dE             d eps       ncg     rms          rms(c)
DAV:   1    -0.116359121411E+04   -0.17771E-02   -0.13157E+00  6320   0.129E+00    0.479E-01
RMM:   2    -0.116359442018E+04   -0.32061E-02   -0.37863E-02  6165   0.250E-01    0.393E-01
RMM:   3    -0.116359435670E+04    0.63477E-04   -0.21216E-03  6216   0.845E-02    0.234E-01
RMM:   4    -0.116359406124E+04    0.29546E-03   -0.11253E-03  5613   0.371E-02    0.101E-01
RMM:   5    -0.116359400571E+04    0.55527E-04   -0.19832E-04  4262   0.225E-02    0.351E-02
RMM:   6    -0.116359400666E+04   -0.94797E-06   -0.49566E-05  3636   0.103E-02    0.245E-02
RMM:   7    -0.116359400851E+04   -0.18533E-05   -0.22077E-05  3500   0.729E-03    0.197E-02
RMM:   8    -0.116359401004E+04   -0.15325E-05   -0.14594E-05  3396   0.587E-03
   2 F= -.11635940E+04 E0= -.11635940E+04  d E =-.455198E-02  mag=     4.0000
       N       E                     dE             d eps       ncg     rms          rms(c)
DAV:   1    -0.116359551357E+04   -0.15051E-02   -0.40023E-01  6352   0.707E-01    0.252E-01
RMM:   2    -0.116359653064E+04   -0.10171E-02   -0.11848E-02  6162   0.140E-01    0.213E-01
RMM:   3    -0.116359653037E+04    0.27751E-06   -0.68211E-04  5423   0.468E-02    0.123E-01
RMM:   4    -0.116359645252E+04    0.77842E-04   -0.28780E-04  4486   0.201E-02    0.579E-02
RMM:   5    -0.116359644275E+04    0.97778E-05   -0.76988E-05  3702   0.128E-02    0.219E-02
RMM:   6    -0.116359644376E+04   -0.10163E-05   -0.19042E-05  3454   0.701E-03    0.133E-02
RMM:   7    -0.116359644516E+04   -0.13966E-05   -0.95582E-06  3193   0.451E-03    0.107E-02
RMM:   8    -0.116359644662E+04   -0.14565E-05   -0.60575E-06  3123   0.391E-03
   3 F= -.11635964E+04 E0= -.11635964E+04  d E =-.243657E-02  mag=     4.0000
       N       E                     dE             d eps       ncg     rms          rms(c)
DAV:   1    -0.116359699629E+04   -0.55113E-03   -0.77062E-01  6304   0.101E+00    0.282E-01
RMM:   2    -0.116359912086E+04   -0.21246E-02   -0.18698E-02  6370   0.171E-01    0.163E-01
RMM:   3    -0.116359921396E+04   -0.93100E-04   -0.93514E-04  5644   0.575E-02    0.907E-02
RMM:   4    -0.116359916806E+04    0.45898E-04   -0.19139E-04  3804   0.191E-02    0.424E-02
RMM:   5    -0.116359916835E+04   -0.28484E-06   -0.75703E-05  3543   0.129E-02    0.138E-02
RMM:   6    -0.116359917176E+04   -0.34161E-05   -0.25989E-05  3472   0.836E-03    0.904E-03
RMM:   7    -0.116359917382E+04   -0.20594E-05   -0.15758E-05  3266   0.560E-03    0.737E-03
RMM:   8    -0.116359917552E+04   -0.17001E-05   -0.93537E-06  3104   0.496E-03
   4 F= -.11635992E+04 E0= -.11635992E+04  d E =-.272891E-02  mag=     4.0000
       N       E                     dE             d eps       ncg     rms          rms(c)
DAV:   1    -0.116359830018E+04    0.87365E-03   -0.15283E+00  6296   0.142E+00    0.357E-01
RMM:   2    -0.116360219593E+04   -0.38958E-02   -0.36493E-02  6407   0.237E-01    0.205E-01
RMM:   3    -0.116360230923E+04   -0.11330E-03   -0.18190E-03  6218   0.784E-02    0.117E-01
RMM:   4    -0.116360222899E+04    0.80233E-04   -0.39012E-04  4643   0.254E-02    0.565E-02
RMM:   5    -0.116360222575E+04    0.32460E-05   -0.12133E-04  3615   0.161E-02    0.205E-02
RMM:   6    -0.116360223164E+04   -0.58875E-05   -0.41259E-05  3511   0.107E-02    0.969E-03
RMM:   7    -0.116360223504E+04   -0.33998E-05   -0.26881E-05  3433   0.727E-03    0.724E-03
RMM:   8    -0.116360223746E+04   -0.24212E-05   -0.15434E-05  3318   0.633E-03
   5 F= -.11636022E+04 E0= -.11636022E+04  d E =-.306193E-02  mag=     4.0000
       N       E                     dE             d eps       ncg     rms          rms(c)
DAV:   1    -0.116360268800E+04   -0.45297E-03   -0.41756E-01  6296   0.747E-01    0.144E-01
RMM:   2    -0.116360361001E+04   -0.92201E-03   -0.10266E-02  6323   0.125E-01    0.912E-02
RMM:   3    -0.116360359768E+04    0.12335E-04   -0.47124E-04  4630   0.412E-02    0.577E-02
RMM:   4    -0.116360357733E+04    0.20353E-04   -0.11990E-04  3595   0.144E-02    0.305E-02
RMM:   5    -0.116360357905E+04   -0.17236E-05   -0.43640E-05  3487   0.976E-03    0.807E-03
RMM:   6    -0.116360358147E+04   -0.24257E-05   -0.18088E-05  3383   0.644E-03    0.611E-03
RMM:   7    -0.116360358296E+04   -0.14876E-05   -0.10844E-05  3141   0.488E-03    0.451E-03
RMM:   8    -0.116360358434E+04   -0.13736E-05   -0.72169E-06  2894   0.409E-03
   6 F= -.11636036E+04 E0= -.11636036E+04  d E =-.134688E-02  mag=     4.0000
       N       E                     dE             d eps       ncg     rms          rms(c)
DAV:   1    -0.116360375255E+04   -0.16959E-03   -0.56404E-01  6288   0.869E-01    0.151E-01
RMM:   2    -0.116360496119E+04   -0.12086E-02   -0.13585E-02  6179   0.144E-01    0.925E-02
RMM:   3    -0.116360494718E+04    0.14011E-04   -0.64995E-04  5154   0.496E-02    0.602E-02
RMM:   4    -0.116360492099E+04    0.26181E-04   -0.15885E-04  3682   0.159E-02    0.346E-02
RMM:   5    -0.116360492063E+04    0.36486E-06   -0.48911E-05  3503   0.106E-02    0.117E-02
RMM:   6    -0.116360492340E+04   -0.27702E-05   -0.21760E-05  3411   0.695E-03    0.879E-03
RMM:   7    -0.116360492493E+04   -0.15278E-05   -0.12975E-05  3227   0.549E-03    0.636E-03
RMM:   8    -0.116360492610E+04   -0.11735E-05   -0.85592E-06  2943   0.429E-03
   7 F= -.11636049E+04 E0= -.11636049E+04  d E =-.134176E-02  mag=     4.0000
       N       E                     dE             d eps       ncg     rms          rms(c)
DAV:   1    -0.116360487707E+04    0.47858E-04   -0.62388E-01  6288   0.912E-01    0.158E-01
RMM:   2    -0.116360619512E+04   -0.13180E-02   -0.14888E-02  6185   0.149E-01    0.941E-02
RMM:   3    -0.116360617434E+04    0.20774E-04   -0.70864E-04  5247   0.512E-02    0.612E-02
RMM:   4    -0.116360614766E+04    0.26681E-04   -0.18147E-04  3748   0.168E-02    0.317E-02
RMM:   5    -0.116360614803E+04   -0.36509E-06   -0.46642E-05  3498   0.107E-02    0.116E-02
RMM:   6    -0.116360615077E+04   -0.27435E-05   -0.22691E-05  3401   0.682E-03    0.957E-03
RMM:   7    -0.116360615223E+04   -0.14643E-05   -0.13438E-05  3208   0.573E-03    0.596E-03
RMM:   8    -0.116360615334E+04   -0.11082E-05   -0.91386E-06  2896   0.432E-03
   8 F= -.11636062E+04 E0= -.11636062E+04  d E =-.122724E-02  mag=     4.0000
       N       E                     dE             d eps       ncg     rms          rms(c)
DAV:   1    -0.116360632751E+04   -0.17528E-03   -0.27815E-01  6336   0.606E-01    0.105E-01
RMM:   2    -0.116360692528E+04   -0.59777E-03   -0.66520E-03  6258   0.993E-02    0.632E-02
RMM:   3    -0.116360691327E+04    0.12017E-04   -0.29372E-04  4109   0.333E-02    0.409E-02
RMM:   4    -0.116360690119E+04    0.12080E-04   -0.83512E-05  3516   0.118E-02    0.261E-02
RMM:   5    -0.116360690231E+04   -0.11230E-05   -0.24538E-05  3417   0.761E-03    0.122E-02
RMM:   6    -0.116360690390E+04   -0.15863E-05   -0.12979E-05  3265   0.518E-03    0.750E-03
RMM:   7    -0.116360690471E+04   -0.80935E-06   -0.71865E-06  2868   0.438E-03    0.519E-03
RMM:   8    -0.116360690525E+04   -0.54721E-06   -0.46043E-06  2421   0.326E-03
   9 F= -.11636069E+04 E0= -.11636069E+04  d E =-.751912E-03  mag=     4.0000
       N       E                     dE             d eps       ncg     rms          rms(c)
DAV:   1    -0.116360698506E+04   -0.80358E-04   -0.30081E-01  6320   0.627E-01    0.109E-01
RMM:   2    -0.116360763086E+04   -0.64580E-03   -0.70648E-03  6217   0.102E-01    0.633E-02
RMM:   3    -0.116360762343E+04    0.74347E-05   -0.32422E-04  4221   0.356E-02    0.410E-02
RMM:   4    -0.116360761064E+04    0.12786E-04   -0.82149E-05  3505   0.119E-02    0.248E-02
RMM:   5    -0.116360761196E+04   -0.13202E-05   -0.25633E-05  3405   0.777E-03    0.132E-02
RMM:   6    -0.116360761355E+04   -0.15940E-05   -0.13232E-05  3269   0.532E-03    0.707E-03
RMM:   7    -0.116360761437E+04   -0.81088E-06   -0.72473E-06  2847   0.432E-03    0.515E-03
RMM:   8    -0.116360761488E+04   -0.51389E-06   -0.46144E-06  2381   0.329E-03
  10 F= -.11636076E+04 E0= -.11636076E+04  d E =-.709625E-03  mag=     4.0000
       N       E                     dE             d eps       ncg     rms          rms(c)
DAV:   1    -0.116360746325E+04    0.15112E-03   -0.40498E-01  6328   0.726E-01    0.130E-01
RMM:   2    -0.116360834783E+04   -0.88458E-03   -0.94975E-03  6260   0.119E-01    0.740E-02
RMM:   3    -0.116360834344E+04    0.43860E-05   -0.44860E-04  4543   0.408E-02    0.474E-02
RMM:   4    -0.116360832576E+04    0.17680E-04   -0.10084E-04  3552   0.132E-02    0.267E-02
RMM:   5    -0.116360832681E+04   -0.10464E-05   -0.35437E-05  3430   0.892E-03    0.130E-02
RMM:   6    -0.116360832879E+04   -0.19826E-05   -0.16389E-05  3328   0.596E-03    0.719E-03
RMM:   7    -0.116360832979E+04   -0.99895E-06   -0.90802E-06  2990   0.470E-03    0.510E-03
RMM:   8    -0.116360833042E+04   -0.63019E-06   -0.59318E-06  2576   0.362E-03
  11 F= -.11636083E+04 E0= -.11636083E+04  d E =-.715539E-03  mag=     4.0000
       N       E                     dE             d eps       ncg     rms          rms(c)
DAV:   1    -0.116360845713E+04   -0.12734E-03   -0.99124E-02  6208   0.356E-01    0.657E-02
RMM:   2    -0.116360867380E+04   -0.21667E-03   -0.23505E-03  6142   0.591E-02    0.390E-02
RMM:   3    -0.116360866961E+04    0.41913E-05   -0.99145E-05  3540   0.206E-02    0.247E-02
RMM:   4    -0.116360866577E+04    0.38358E-05   -0.34955E-05  3392   0.736E-03    0.157E-02
RMM:   5    -0.116360866602E+04   -0.24089E-06   -0.98683E-06  3075   0.469E-03    0.954E-03
RMM:   6    -0.116360866657E+04   -0.55796E-06   -0.50318E-06  2633   0.343E-03    0.435E-03
RMM:   7    -0.116360866686E+04   -0.28822E-06   -0.25171E-06  2077   0.283E-03    0.314E-03
RMM:   8    -0.116360866701E+04   -0.15010E-06   -0.13533E-06  1557   0.234E-03
  12 F= -.11636087E+04 E0= -.11636087E+04  d E =-.336594E-03  mag=     4.0000
       N       E                     dE             d eps       ncg     rms          rms(c)
DAV:   1    -0.116360864352E+04    0.23339E-04   -0.20132E-01  6208   0.509E-01    0.951E-02
RMM:   2    -0.116360909168E+04   -0.44815E-03   -0.46909E-03  6277   0.838E-02    0.546E-02
RMM:   3    -0.116360909055E+04    0.11236E-05   -0.20789E-04  3881   0.281E-02    0.339E-02
RMM:   4    -0.116360908285E+04    0.77042E-05   -0.52509E-05  3468   0.964E-03    0.186E-02
RMM:   5    -0.116360908315E+04   -0.30421E-06   -0.19495E-05  3344   0.630E-03    0.861E-03
RMM:   6    -0.116360908414E+04   -0.98973E-06   -0.80977E-06  3018   0.439E-03    0.464E-03
RMM:   7    -0.116360908463E+04   -0.48651E-06   -0.42907E-06  2378   0.322E-03    0.316E-03
RMM:   8    -0.116360908489E+04   -0.25654E-06   -0.23942E-06  1974   0.279E-03
  13 F= -.11636091E+04 E0= -.11636091E+04  d E =-.417873E-03  mag=     4.0000
       N       E                     dE             d eps       ncg     rms          rms(c)
DAV:   1    -0.116360915720E+04   -0.72571E-04   -0.82645E-02  6144   0.325E-01    0.665E-02
RMM:   2    -0.116360934809E+04   -0.19089E-03   -0.19373E-03  6070   0.541E-02    0.380E-02
RMM:   3    -0.116360934955E+04   -0.14667E-05   -0.86111E-05  3509   0.193E-02    0.230E-02
RMM:   4    -0.116360934730E+04    0.22498E-05   -0.28379E-05  3372   0.672E-03    0.141E-02
RMM:   5    -0.116360934725E+04    0.55021E-07   -0.85019E-06  2953   0.433E-03    0.957E-03
RMM:   6    -0.116360934769E+04   -0.43870E-06   -0.44298E-06  2508   0.324E-03    0.394E-03
RMM:   7    -0.116360934791E+04   -0.22240E-06   -0.19618E-06  1868   0.262E-03    0.252E-03
RMM:   8    -0.116360934801E+04   -0.10402E-06   -0.98947E-07  1391   0.223E-03
  14 F= -.11636093E+04 E0= -.11636093E+04  d E =-.263129E-03  mag=     4.0000
       N       E                     dE             d eps       ncg     rms          rms(c)
DAV:   1    -0.116360940485E+04   -0.56937E-04   -0.97738E-02  6160   0.353E-01    0.657E-02
RMM:   2    -0.116360961946E+04   -0.21461E-03   -0.22765E-03  6143   0.582E-02    0.379E-02
RMM:   3    -0.116360961815E+04    0.13113E-05   -0.98168E-05  3532   0.203E-02    0.238E-02
RMM:   4    -0.116360961509E+04    0.30576E-05   -0.31211E-05  3365   0.707E-03    0.135E-02
RMM:   5    -0.116360961528E+04   -0.19583E-06   -0.92254E-06  3022   0.444E-03    0.720E-03
RMM:   6    -0.116360961577E+04   -0.48519E-06   -0.42556E-06  2452   0.325E-03    0.368E-03
RMM:   7    -0.116360961599E+04   -0.22564E-06   -0.19070E-06  1824   0.258E-03    0.216E-03
RMM:   8    -0.116360961611E+04   -0.11468E-06   -0.96763E-07  1354   0.224E-03
  15 F= -.11636096E+04 E0= -.11636096E+04  d E =-.268096E-03  mag=     4.0000
       N       E                     dE             d eps       ncg     rms          rms(c)
DAV:   1    -0.116360970390E+04   -0.87905E-04   -0.46474E-02  6160   0.243E-01    0.462E-02
RMM:   2    -0.116360980576E+04   -0.10186E-03   -0.10722E-03  5740   0.401E-02    0.270E-02
RMM:   3    -0.116360980596E+04   -0.20699E-06   -0.49645E-05  3398   0.148E-02    0.170E-02
RMM:   4    -0.116360980508E+04    0.88281E-06   -0.16754E-05  3233   0.510E-03    0.107E-02
RMM:   5    -0.116360980505E+04    0.33149E-07   -0.46093E-06  2461   0.329E-03    0.477E-03
RMM:   6    -0.116360980530E+04   -0.24959E-06   -0.22024E-06  1862   0.254E-03    0.220E-03
RMM:   7    -0.116360980539E+04   -0.95752E-07   -0.80639E-07  1303   0.221E-03    0.106E-03
RMM:   8    -0.116360980544E+04   -0.46828E-07   -0.35128E-07   956   0.200E-03
  16 F= -.11636098E+04 E0= -.11636098E+04  d E =-.189331E-03  mag=     4.0000
       N       E                     dE             d eps       ncg     rms          rms(c)
DAV:   1    -0.116360969680E+04    0.10860E-03   -0.19550E-01  6144   0.499E-01    0.898E-02
RMM:   2    -0.116361012576E+04   -0.42896E-03   -0.45272E-03  6259   0.815E-02    0.515E-02
RMM:   3    -0.116361012260E+04    0.31564E-05   -0.19865E-04  3844   0.276E-02    0.325E-02
RMM:   4    -0.116361011528E+04    0.73208E-05   -0.51850E-05  3448   0.946E-03    0.173E-02
RMM:   5    -0.116361011611E+04   -0.82802E-06   -0.17564E-05  3323   0.600E-03    0.718E-03
RMM:   6    -0.116361011702E+04   -0.91325E-06   -0.73522E-06  2920   0.415E-03    0.426E-03
RMM:   7    -0.116361011747E+04   -0.44673E-06   -0.38545E-06  2275   0.310E-03    0.289E-03
RMM:   8    -0.116361011772E+04   -0.25285E-06   -0.21349E-06  1837   0.266E-03
  17 F= -.11636101E+04 E0= -.11636101E+04  d E =-.312278E-03  mag=     4.0000
