       N       E                     dE             d eps       ncg     rms          rms(c)
DAV:   1    -0.116252114514E+04   -0.11625E+04   -0.11888E-05  7856   0.812E-03    0.106E-02
RMM:   2    -0.116252115120E+04   -0.60622E-05   -0.16060E-05  6301   0.494E-03    0.144E-02
RMM:   3    -0.116252115146E+04   -0.26348E-06   -0.44938E-06  5018   0.289E-03    0.749E-03
RMM:   4    -0.116252115065E+04    0.81029E-06   -0.14411E-06  3229   0.248E-03    0.735E-03
RMM:   5    -0.116252114914E+04    0.15130E-05   -0.99745E-07  2773   0.224E-03    0.766E-03
RMM:   6    -0.116252114690E+04    0.22416E-05   -0.86509E-07  2238   0.209E-03    0.762E-03
RMM:   7    -0.116252114287E+04    0.40240E-05   -0.19545E-06  3094   0.248E-03    0.807E-03
RMM:   8    -0.116252113447E+04    0.84000E-05   -0.51500E-06  3784   0.298E-03
   1 F= -.11625211E+04 E0= -.11625211E+04  d E =-.116252E+04  mag=     4.0000
       N       E                     dE             d eps       ncg     rms          rms(c)
DAV:   1    -0.116252131595E+04   -0.17308E-03   -0.18921E-01 12608   0.508E-01    0.143E-01
RMM:   2    -0.116252158203E+04   -0.26609E-03   -0.60925E-03 12268   0.101E-01    0.152E-01
RMM:   3    -0.116252152459E+04    0.57444E-04   -0.25221E-04  8809   0.323E-02    0.105E-01
RMM:   4    -0.116252147775E+04    0.46838E-04   -0.20810E-04  8226   0.170E-02    0.610E-02
RMM:   5    -0.116252146610E+04    0.11652E-04   -0.57489E-05  7180   0.110E-02    0.246E-02
RMM:   6    -0.116252146967E+04   -0.35723E-05   -0.18343E-05  6716   0.615E-03    0.175E-02
RMM:   7    -0.116252147344E+04   -0.37659E-05   -0.86537E-06  6174   0.435E-03    0.135E-02
RMM:   8    -0.116252148030E+04   -0.68587E-05   -0.85527E-06  6033   0.390E-03
   2 F= -.11625215E+04 E0= -.11625215E+04  d E =-.345826E-03  mag=     4.0000
       N       E                     dE             d eps       ncg     rms          rms(c)
DAV:   1    -0.116252191651E+04   -0.44307E-03   -0.43931E-02 12288   0.242E-01    0.760E-02
RMM:   2    -0.116252194423E+04   -0.27717E-04   -0.15661E-03 12060   0.512E-02    0.832E-02
RMM:   3    -0.116252192293E+04    0.21297E-04   -0.63361E-05  6936   0.161E-02    0.574E-02
RMM:   4    -0.116252190772E+04    0.15212E-04   -0.72036E-05  7103   0.973E-03    0.325E-02
RMM:   5    -0.116252190710E+04    0.62621E-06   -0.22054E-05  6417   0.625E-03    0.185E-02
RMM:   6    -0.116252190971E+04   -0.26134E-05   -0.69042E-06  5613   0.416E-03    0.129E-02
RMM:   7    -0.116252191261E+04   -0.28980E-05   -0.37809E-06  4175   0.271E-03    0.106E-02
RMM:   8    -0.116252191838E+04   -0.57761E-05   -0.52421E-06  4148   0.301E-03
   3 F= -.11625219E+04 E0= -.11625219E+04  d E =-.438086E-03  mag=     4.0000
