       N       E                     dE             d eps       ncg     rms          rms(c)
DAV:   1     0.118036872899E+05    0.11804E+05   -0.41834E+05 12352   0.130E+03
DAV:   2     0.623265795139E+03   -0.11180E+05   -0.99889E+04 12288   0.372E+02
DAV:   3    -0.136585453832E+04   -0.19891E+04   -0.19179E+04 13208   0.163E+02
DAV:   4    -0.149708458965E+04   -0.13123E+03   -0.12898E+03 16368   0.432E+01
DAV:   5    -0.150491477703E+04   -0.78302E+01   -0.77993E+01 21856   0.919E+00    0.183E+02
RMM:   6    -0.116584127631E+04    0.33907E+03   -0.15835E+03 12519   0.341E+01    0.968E+01
RMM:   7    -0.115322651784E+04    0.12615E+02   -0.63751E+01 12853   0.977E+00    0.586E+01
RMM:   8    -0.116360634403E+04   -0.10380E+02   -0.43286E+01 12546   0.696E+00    0.302E+01
RMM:   9    -0.116274062988E+04    0.86571E+00   -0.76730E+00 12747   0.276E+00    0.152E+01
RMM:  10    -0.115983091530E+04    0.29097E+01   -0.42661E+00 12618   0.186E+00    0.110E+01
RMM:  11    -0.115980604604E+04    0.24869E-01   -0.62572E+00 12428   0.186E+00    0.837E+00
RMM:  12    -0.115998666750E+04   -0.18062E+00   -0.74281E-01 13168   0.723E-01    0.458E+00
RMM:  13    -0.116076310803E+04   -0.77644E+00   -0.77339E-01 12320   0.791E-01    0.346E+00
RMM:  14    -0.116114261476E+04   -0.37951E+00   -0.36674E-01 12593   0.528E-01    0.231E+00
RMM:  15    -0.116124729662E+04   -0.10468E+00   -0.17357E-01 12805   0.370E-01    0.119E+00
RMM:  16    -0.116129734158E+04   -0.50045E-01   -0.89075E-02 13003   0.267E-01    0.681E-01
RMM:  17    -0.116130984904E+04   -0.12507E-01   -0.26175E-02 14159   0.133E-01    0.466E-01
RMM:  18    -0.116131319172E+04   -0.33427E-02   -0.10176E-02 13254   0.880E-02    0.277E-01
RMM:  19    -0.116131485100E+04   -0.16593E-02   -0.41930E-03 13479   0.554E-02    0.172E-01
RMM:  20    -0.116131532667E+04   -0.47567E-03   -0.14407E-03 12625   0.323E-02    0.109E-01
RMM:  21    -0.116131586182E+04   -0.53514E-03   -0.93012E-04 11356   0.262E-02    0.765E-02
RMM:  22    -0.116131629873E+04   -0.43691E-03   -0.58165E-04 10480   0.211E-02    0.633E-02
RMM:  23    -0.116131655493E+04   -0.25620E-03   -0.37613E-04  9414   0.168E-02    0.476E-02
RMM:  24    -0.116131680373E+04   -0.24880E-03   -0.42295E-04  9324   0.176E-02    0.357E-02
RMM:  25    -0.116131695939E+04   -0.15566E-03   -0.32077E-04  8898   0.154E-02    0.264E-02
RMM:  26    -0.116131703558E+04   -0.76192E-04   -0.12972E-04  8248   0.102E-02
   1 F= -.11613170E+04 E0= -.11613110E+04  d E =-.116132E+04  mag=     3.9944
       N       E                     dE             d eps       ncg     rms          rms(c)
DAV:   1    -0.113816865562E+04    0.23148E+02   -0.21922E+03 12712   0.439E+01    0.374E+01
RMM:   2    -0.115108601689E+04   -0.12917E+02   -0.15727E+02 12295   0.105E+01    0.203E+01
RMM:   3    -0.115157063428E+04   -0.48462E+00   -0.10020E+01 13061   0.241E+00    0.129E+01
RMM:   4    -0.115248559738E+04   -0.91496E+00   -0.61002E+00 13791   0.164E+00    0.106E+01
RMM:   5    -0.115129284844E+04    0.11927E+01   -0.15058E+00 13425   0.827E-01    0.392E+00
RMM:   6    -0.115112885236E+04    0.16400E+00   -0.32361E-01 14156   0.411E-01    0.143E+00
RMM:   7    -0.115115266816E+04   -0.23816E-01   -0.12507E-01 16689   0.228E-01    0.154E+00
RMM:   8    -0.115117700550E+04   -0.24337E-01   -0.30267E-02 16973   0.114E-01    0.165E+00
RMM:   9    -0.115117047219E+04    0.65333E-02   -0.96936E-03 18158   0.538E-02    0.161E+00
RMM:  10    -0.115116027263E+04    0.10200E-01   -0.43801E-03 16659   0.408E-02    0.149E+00
RMM:  11    -0.115115109398E+04    0.91786E-02   -0.60294E-02 12252   0.184E-01    0.163E+00
RMM:  12    -0.115113862297E+04    0.12471E-01   -0.95537E-03 11846   0.857E-02    0.945E-01
RMM:  13    -0.115113496353E+04    0.36594E-02   -0.38182E-03 11518   0.480E-02    0.488E-01
RMM:  14    -0.115113204796E+04    0.29156E-02   -0.24721E-03 11219   0.416E-02    0.167E-01
RMM:  15    -0.115113226222E+04   -0.21427E-03   -0.44263E-04  9313   0.190E-02    0.121E-01
RMM:  16    -0.115113221091E+04    0.51314E-04   -0.43444E-04  9115   0.167E-02
   2 F= -.11511322E+04 E0= -.11511268E+04  d E =0.101848E+02  mag=     3.9752
       N       E                     dE             d eps       ncg     rms          rms(c)
DAV:   1    -0.114596534346E+04    0.51669E+01   -0.17868E+03 12544   0.322E+01    0.322E+01
RMM:   2    -0.116375692699E+04   -0.17792E+02   -0.17405E+02 12288   0.942E+00    0.360E+01
RMM:   3    -0.116205411364E+04    0.17028E+01   -0.12656E+01 12375   0.247E+00    0.252E+01
RMM:   4    -0.115850547175E+04    0.35486E+01   -0.45218E+00 12346   0.174E+00    0.150E+01
RMM:   5    -0.115826813506E+04    0.23734E+00   -0.34963E+00 12304   0.148E+00    0.103E+01
RMM:   6    -0.115766791982E+04    0.60022E+00   -0.63930E-01 12254   0.631E-01    0.439E+00
RMM:   7    -0.115770660809E+04   -0.38688E-01   -0.49718E-01 12186   0.520E-01    0.328E+00
RMM:   8    -0.115777416299E+04   -0.67555E-01   -0.68388E-02 12216   0.252E-01    0.327E+00
RMM:   9    -0.115763520634E+04    0.13896E+00   -0.16218E-02 14449   0.100E-01    0.321E+00
RMM:  10    -0.115761965930E+04    0.15547E-01   -0.35808E-03 15514   0.357E-02    0.316E+00
RMM:  11    -0.115760579235E+04    0.13867E-01   -0.36538E-03 11707   0.519E-02    0.310E+00
RMM:  12    -0.115758085549E+04    0.24937E-01   -0.19578E-03 11377   0.345E-02    0.303E+00
RMM:  13    -0.115757310017E+04    0.77553E-02   -0.20236E-03 10949   0.398E-02    0.280E+00
RMM:  14    -0.115758106949E+04   -0.79693E-02   -0.19869E-03 10911   0.376E-02    0.266E+00
RMM:  15    -0.115763499937E+04   -0.53930E-01   -0.67391E-03 12032   0.698E-02    0.309E+00
RMM:  16    -0.115763337422E+04    0.16252E-02   -0.96186E-03 11996   0.890E-02    0.308E+00
RMM:  17    -0.115770194114E+04   -0.68567E-01   -0.13876E-02 12063   0.112E-01    0.297E+00
RMM:  18    -0.115772910978E+04   -0.27169E-01   -0.21910E-02 12131   0.127E-01    0.281E+00
RMM:  19    -0.115772233895E+04    0.67708E-02   -0.44249E-03 11695   0.555E-02    0.278E+00
RMM:  20    -0.115773213899E+04   -0.98000E-02   -0.10058E-03 12027   0.229E-02    0.277E+00
RMM:  21    -0.115775620604E+04   -0.24067E-01   -0.10801E-02 11956   0.961E-02    0.268E+00
RMM:  22    -0.115776889586E+04   -0.12690E-01   -0.60665E-02 12121   0.225E-01    0.298E+00
RMM:  23    -0.115779601604E+04   -0.27120E-01   -0.14159E-02 12153   0.106E-01    0.295E+00
RMM:  24    -0.115778395880E+04    0.12057E-01   -0.38304E-03 11752   0.498E-02    0.271E+00
RMM:  25    -0.115774176940E+04    0.42189E-01   -0.11476E-02 12066   0.973E-02    0.177E+00
RMM:  26    -0.115773447795E+04    0.72915E-02   -0.86738E-03 12031   0.862E-02    0.133E+00
RMM:  27    -0.115773441886E+04    0.59093E-04   -0.76822E-04 10008   0.209E-02
   3 F= -.11577344E+04 E0= -.11577225E+04  d E =-.660221E+01  mag=     2.9533
       N       E                     dE             d eps       ncg     rms          rms(c)
DAV:   1    -0.115771385670E+04    0.20621E-01   -0.68579E+02 12416   0.260E+01    0.990E+00
RMM:   2    -0.116085960965E+04   -0.31458E+01   -0.35171E+01 12288   0.584E+00    0.103E+01
RMM:   3    -0.116084961748E+04    0.99922E-02   -0.14297E+00 13203   0.113E+00    0.776E+00
RMM:   4    -0.116104726817E+04   -0.19765E+00   -0.66821E-01 12219   0.728E-01    0.740E+00
RMM:   5    -0.116089432039E+04    0.15295E+00   -0.67791E-01 12260   0.680E-01    0.296E+00
RMM:   6    -0.116077977714E+04    0.11454E+00   -0.14461E-01 12184   0.358E-01    0.172E+00
RMM:   7    -0.116074317954E+04    0.36598E-01   -0.90996E-02 12118   0.243E-01    0.680E-01
RMM:   8    -0.116074850259E+04   -0.53231E-02   -0.10888E-02 12200   0.986E-02    0.663E-01
RMM:   9    -0.116075241862E+04   -0.39160E-02   -0.42583E-03 11880   0.595E-02    0.638E-01
RMM:  10    -0.116075488106E+04   -0.24624E-02   -0.34011E-03 11655   0.520E-02    0.597E-01
RMM:  11    -0.116075712082E+04   -0.22398E-02   -0.40816E-03 11948   0.548E-02    0.486E-01
RMM:  12    -0.116076244704E+04   -0.53262E-02   -0.20262E-02 12117   0.122E-01    0.357E-01
RMM:  13    -0.116076339236E+04   -0.94531E-03   -0.15318E-02 12615   0.101E-01    0.143E-01
RMM:  14    -0.116076399553E+04   -0.60317E-03   -0.19189E-03 13270   0.319E-02    0.213E-01
RMM:  15    -0.116076368310E+04    0.31243E-03   -0.97327E-04 10488   0.264E-02    0.702E-02
RMM:  16    -0.116076394285E+04   -0.25976E-03   -0.20503E-04  8339   0.152E-02    0.891E-02
RMM:  17    -0.116076414268E+04   -0.19983E-03   -0.16912E-04  8337   0.126E-02    0.758E-02
RMM:  18    -0.116076426262E+04   -0.11994E-03   -0.13264E-04  8037   0.975E-03    0.625E-02
RMM:  19    -0.116076442985E+04   -0.16722E-03   -0.21557E-04  8524   0.119E-02    0.433E-02
RMM:  20    -0.116076457984E+04   -0.15000E-03   -0.16644E-04  8173   0.111E-02    0.326E-02
RMM:  21    -0.116076468537E+04   -0.10552E-03   -0.92550E-05  7640   0.789E-03    0.311E-02
RMM:  22    -0.116076473684E+04   -0.51468E-04   -0.34514E-05  6696   0.477E-03
   4 F= -.11607647E+04 E0= -.11607621E+04  d E =-.303032E+01  mag=     3.9955
       N       E                     dE             d eps       ncg     rms          rms(c)
DAV:   1    -0.116170508308E+04   -0.94040E+00   -0.11047E+02 12880   0.104E+01    0.356E+00
RMM:   2    -0.116193842121E+04   -0.23334E+00   -0.33653E+00 12288   0.197E+00    0.265E+00
RMM:   3    -0.116190466854E+04    0.33753E-01   -0.16641E-01 12351   0.453E-01    0.168E+00
RMM:   4    -0.116188571771E+04    0.18951E-01   -0.80765E-02 12204   0.262E-01    0.125E+00
RMM:   5    -0.116188178206E+04    0.39356E-02   -0.29578E-02 12242   0.153E-01    0.585E-01
RMM:   6    -0.116188093395E+04    0.84812E-03   -0.79852E-03 12535   0.814E-02    0.305E-01
RMM:   7    -0.116188195809E+04   -0.10241E-02   -0.19043E-03 13613   0.353E-02    0.286E-01
RMM:   8    -0.116188190293E+04    0.55158E-04   -0.13459E-03 11071   0.314E-02    0.131E-01
RMM:   9    -0.116188224052E+04   -0.33759E-03   -0.40269E-04  9835   0.200E-02    0.996E-02
RMM:  10    -0.116188228736E+04   -0.46840E-04   -0.12532E-04  8207   0.119E-02
   5 F= -.11618823E+04 E0= -.11618798E+04  d E =-.111755E+01  mag=     3.9925
       N       E                     dE             d eps       ncg     rms          rms(c)
DAV:   1    -0.116256090827E+04   -0.67867E+00   -0.10730E+02 12400   0.957E+00    0.351E+00
RMM:   2    -0.116284111856E+04   -0.28021E+00   -0.29239E+00 12288   0.172E+00    0.257E+00
RMM:   3    -0.116283784871E+04    0.32699E-02   -0.18573E-01 12745   0.426E-01    0.152E+00
RMM:   4    -0.116284055251E+04   -0.27038E-02   -0.60968E-02 12648   0.196E-01    0.121E+00
RMM:   5    -0.116283687898E+04    0.36735E-02   -0.29208E-02 12298   0.148E-01    0.457E-01
RMM:   6    -0.116283940988E+04   -0.25309E-02   -0.47379E-03 12797   0.658E-02    0.333E-01
RMM:   7    -0.116284050337E+04   -0.10935E-02   -0.28696E-03 12933   0.425E-02    0.238E-01
RMM:   8    -0.116284226117E+04   -0.17578E-02   -0.29347E-03 12204   0.473E-02    0.130E-01
RMM:   9    -0.116284245507E+04   -0.19390E-03   -0.56553E-04 10787   0.229E-02    0.644E-02
RMM:  10    -0.116284261362E+04   -0.15855E-03   -0.14613E-04  8423   0.125E-02    0.593E-02
RMM:  11    -0.116284270325E+04   -0.89627E-04   -0.94841E-05  8148   0.916E-03
   6 F= -.11628427E+04 E0= -.11628337E+04  d E =-.960416E+00  mag=     3.9845
       N       E                     dE             d eps       ncg     rms          rms(c)
DAV:   1    -0.116330389409E+04   -0.46128E+00   -0.41174E+01 12720   0.620E+00    0.214E+00
RMM:   2    -0.116340341360E+04   -0.99520E-01   -0.11114E+00 12288   0.111E+00    0.181E+00
RMM:   3    -0.116339472625E+04    0.86874E-02   -0.53655E-02 12622   0.234E-01    0.101E+00
RMM:   4    -0.116339181013E+04    0.29161E-02   -0.22121E-02 12125   0.129E-01    0.582E-01
RMM:   5    -0.116338962464E+04    0.21855E-02   -0.58628E-03 12176   0.732E-02    0.159E-01
RMM:   6    -0.116338976966E+04   -0.14501E-03   -0.64404E-04 11123   0.223E-02    0.115E-01
RMM:   7    -0.116338985433E+04   -0.84673E-04   -0.21402E-04  8594   0.143E-02    0.614E-02
RMM:   8    -0.116338990943E+04   -0.55100E-04   -0.10739E-04  8294   0.101E-02
   7 F= -.11633899E+04 E0= -.11633829E+04  d E =-.547206E+00  mag=     3.9838
       N       E                     dE             d eps       ncg     rms          rms(c)
DAV:   1    -0.116381535161E+04   -0.42550E+00   -0.69843E+01 12672   0.776E+00    0.283E+00
RMM:   2    -0.116397577284E+04   -0.16042E+00   -0.19454E+00 12288   0.141E+00    0.226E+00
RMM:   3    -0.116396188002E+04    0.13893E-01   -0.10147E-01 12857   0.306E-01    0.122E+00
RMM:   4    -0.116395399923E+04    0.78808E-02   -0.35624E-02 12383   0.159E-01    0.616E-01
RMM:   5    -0.116395062830E+04    0.33709E-02   -0.76177E-03 13212   0.768E-02    0.186E-01
RMM:   6    -0.116395065067E+04   -0.22370E-04   -0.10942E-03 12872   0.274E-02    0.124E-01
RMM:   7    -0.116395070850E+04   -0.57833E-04   -0.42449E-04 10456   0.170E-02    0.678E-02
RMM:   8    -0.116395072510E+04   -0.16597E-04   -0.17030E-04  8516   0.116E-02
   8 F= -.11639507E+04 E0= -.11639443E+04  d E =-.560816E+00  mag=     3.9898
       N       E                     dE             d eps       ncg     rms          rms(c)
DAV:   1    -0.116413689902E+04   -0.18619E+00   -0.30131E+01 12800   0.545E+00    0.192E+00
RMM:   2    -0.116420558531E+04   -0.68686E-01   -0.85074E-01 12288   0.998E-01    0.151E+00
RMM:   3    -0.116420045739E+04    0.51279E-02   -0.46106E-02 13070   0.216E-01    0.869E-01
RMM:   4    -0.116419729430E+04    0.31631E-02   -0.16125E-02 12909   0.112E-01    0.411E-01
RMM:   5    -0.116419601511E+04    0.12792E-02   -0.37518E-03 13296   0.511E-02    0.127E-01
RMM:   6    -0.116419602554E+04   -0.10433E-04   -0.52439E-04 10791   0.197E-02    0.768E-02
RMM:   7    -0.116419606698E+04   -0.41436E-04   -0.23447E-04  8953   0.129E-02    0.407E-02
RMM:   8    -0.116419607605E+04   -0.90679E-05   -0.10295E-04  7869   0.915E-03
   9 F= -.11641961E+04 E0= -.11641898E+04  d E =-.245351E+00  mag=     3.9897
       N       E                     dE             d eps       ncg     rms          rms(c)
DAV:   1    -0.116417952965E+04    0.16537E-01   -0.55546E+01 12688   0.781E+00    0.275E+00
RMM:   2    -0.116432770921E+04   -0.14818E+00   -0.18337E+00 12289   0.154E+00    0.267E+00
RMM:   3    -0.116431645152E+04    0.11258E-01   -0.93455E-02 14069   0.329E-01    0.194E+00
RMM:   4    -0.116431070803E+04    0.57435E-02   -0.48179E-02 12906   0.198E-01    0.770E-01
RMM:   5    -0.116430664734E+04    0.40607E-02   -0.10714E-02 13894   0.898E-02    0.192E-01
RMM:   6    -0.116430645112E+04    0.19622E-03   -0.11829E-03 14372   0.318E-02    0.123E-01
RMM:   7    -0.116430646794E+04   -0.16821E-04   -0.59169E-04 12804   0.192E-02    0.648E-02
RMM:   8    -0.116430646931E+04   -0.13720E-05   -0.23248E-04  9049   0.127E-02
  10 F= -.11643065E+04 E0= -.11643009E+04  d E =-.110393E+00  mag=     3.9887
       N       E                     dE             d eps       ncg     rms          rms(c)
DAV:   1    -0.116432187879E+04   -0.15411E-01   -0.53448E+00 13288   0.255E+00    0.708E-01
RMM:   2    -0.116433430847E+04   -0.12430E-01   -0.15438E-01 12288   0.464E-01    0.711E-01
RMM:   3    -0.116433359110E+04    0.71737E-03   -0.69543E-03 13194   0.996E-02    0.525E-01
RMM:   4    -0.116433316745E+04    0.42365E-03   -0.30132E-03 11823   0.517E-02    0.270E-01
RMM:   5    -0.116433275083E+04    0.41662E-03   -0.10254E-03 11091   0.285E-02    0.526E-02
RMM:   6    -0.116433273227E+04    0.18562E-04   -0.78189E-05  7595   0.104E-02    0.382E-02
RMM:   7    -0.116433272784E+04    0.44235E-05   -0.49870E-05  7143   0.722E-03    0.166E-02
RMM:   8    -0.116433272924E+04   -0.13997E-05   -0.21839E-05  6917   0.530E-03
  11 F= -.11643327E+04 E0= -.11643272E+04  d E =-.262599E-01  mag=     3.9879
       N       E                     dE             d eps       ncg     rms          rms(c)
DAV:   1    -0.116433555003E+04   -0.28222E-02   -0.47929E+00 12776   0.245E+00    0.535E-01
RMM:   2    -0.116434621734E+04   -0.10667E-01   -0.12859E-01 12288   0.428E-01    0.598E-01
RMM:   3    -0.116434579250E+04    0.42483E-03   -0.53521E-03 13372   0.941E-02    0.464E-01
RMM:   4    -0.116434562761E+04    0.16489E-03   -0.18476E-03 11610   0.393E-02    0.303E-01
RMM:   5    -0.116434517052E+04    0.45709E-03   -0.11611E-03 11189   0.296E-02    0.525E-02
RMM:   6    -0.116434514835E+04    0.22169E-04   -0.72795E-05  7588   0.103E-02    0.445E-02
RMM:   7    -0.116434513914E+04    0.92111E-05   -0.40008E-05  7087   0.683E-03    0.198E-02
RMM:   8    -0.116434513963E+04   -0.49113E-06   -0.36056E-05  6953   0.647E-03
  12 F= -.11643451E+04 E0= -.11643394E+04  d E =-.124104E-01  mag=     3.9872
       N       E                     dE             d eps       ncg     rms          rms(c)
DAV:   1    -0.116428773344E+04    0.57406E-01   -0.36842E+01 12648   0.687E+00    0.173E+00
RMM:   2    -0.116437328974E+04   -0.85556E-01   -0.10355E+00 12294   0.123E+00    0.167E+00
RMM:   3    -0.116436894393E+04    0.43458E-02   -0.47764E-02 13641   0.277E-01    0.125E+00
RMM:   4    -0.116436610720E+04    0.28367E-02   -0.16955E-02 13658   0.124E-01    0.623E-01
RMM:   5    -0.116436426275E+04    0.18444E-02   -0.70022E-03 13649   0.725E-02    0.132E-01
RMM:   6    -0.116436413222E+04    0.13054E-03   -0.74088E-04 13072   0.262E-02    0.915E-02
RMM:   7    -0.116436411753E+04    0.14692E-04   -0.35858E-04 10519   0.157E-02    0.450E-02
RMM:   8    -0.116436413165E+04   -0.14122E-04   -0.15223E-04  7744   0.114E-02
  13 F= -.11643641E+04 E0= -.11643592E+04  d E =-.189920E-01  mag=     3.9861
       N       E                     dE             d eps       ncg     rms          rms(c)
DAV:   1    -0.116437572073E+04   -0.11603E-01   -0.98501E+00 12720   0.339E+00    0.109E+00
RMM:   2    -0.116439938839E+04   -0.23668E-01   -0.30215E-01 12288   0.636E-01    0.120E+00
RMM:   3    -0.116439774975E+04    0.16386E-02   -0.12992E-02 13741   0.130E-01    0.956E-01
RMM:   4    -0.116439746151E+04    0.28824E-03   -0.67404E-03 12087   0.742E-02    0.501E-01
RMM:   5    -0.116439604027E+04    0.14212E-02   -0.29191E-03 11611   0.461E-02    0.972E-02
RMM:   6    -0.116439595736E+04    0.82907E-04   -0.23672E-04  8817   0.165E-02    0.740E-02
RMM:   7    -0.116439592590E+04    0.31464E-04   -0.10866E-04  7585   0.101E-02    0.373E-02
RMM:   8    -0.116439592129E+04    0.46103E-05   -0.70367E-05  7199   0.856E-03
  14 F= -.11643959E+04 E0= -.11643905E+04  d E =-.317896E-01  mag=     3.9861
       N       E                     dE             d eps       ncg     rms          rms(c)
DAV:   1    -0.116438413123E+04    0.11795E-01   -0.13781E+01 12768   0.423E+00    0.694E-01
RMM:   2    -0.116441426218E+04   -0.30131E-01   -0.33173E-01 12300   0.687E-01    0.454E-01
RMM:   3    -0.116441362077E+04    0.64142E-03   -0.13750E-02 12490   0.167E-01    0.301E-01
RMM:   4    -0.116441293776E+04    0.68300E-03   -0.40796E-03 14440   0.594E-02    0.143E-01
RMM:   5    -0.116441280064E+04    0.13713E-03   -0.93157E-04 13282   0.254E-02    0.376E-02
RMM:   6    -0.116441280825E+04   -0.76116E-05   -0.12949E-04  8122   0.109E-02    0.263E-02
RMM:   7    -0.116441281752E+04   -0.92717E-05   -0.82568E-05  7635   0.901E-03    0.130E-02
RMM:   8    -0.116441282335E+04   -0.58268E-05   -0.43252E-05  7205   0.698E-03
  15 F= -.11644128E+04 E0= -.11644076E+04  d E =-.169021E-01  mag=     3.9859
       N       E                     dE             d eps       ncg     rms          rms(c)
DAV:   1    -0.116441117663E+04    0.16409E-02   -0.46377E+00 12816   0.246E+00    0.395E-01
RMM:   2    -0.116442137465E+04   -0.10198E-01   -0.11178E-01 12302   0.399E-01    0.247E-01
RMM:   3    -0.116442114509E+04    0.22955E-03   -0.46804E-03 12480   0.971E-02    0.165E-01
RMM:   4    -0.116442088942E+04    0.25568E-03   -0.14790E-03 12720   0.358E-02    0.607E-02
RMM:   5    -0.116442087971E+04    0.97096E-05   -0.22976E-04  9074   0.143E-02    0.229E-02
RMM:   6    -0.116442088324E+04   -0.35306E-05   -0.35850E-05  7193   0.853E-03    0.144E-02
RMM:   7    -0.116442088975E+04   -0.65123E-05   -0.62722E-05  7096   0.725E-03    0.894E-03
RMM:   8    -0.116442089214E+04   -0.23941E-05   -0.26219E-05  6717   0.549E-03
  16 F= -.11644209E+04 E0= -.11644157E+04  d E =-.806880E-02  mag=     3.9858
       N       E                     dE             d eps       ncg     rms          rms(c)
DAV:   1    -0.116441918319E+04    0.17066E-02   -0.37526E+00 12864   0.221E+00    0.356E-01
RMM:   2    -0.116442745493E+04   -0.82717E-02   -0.90757E-02 12302   0.359E-01    0.219E-01
RMM:   3    -0.116442726714E+04    0.18779E-03   -0.37966E-03 12389   0.878E-02    0.146E-01
RMM:   4    -0.116442706675E+04    0.20040E-03   -0.12084E-03 12329   0.325E-02    0.527E-02
RMM:   5    -0.116442705700E+04    0.97497E-05   -0.17703E-04  8137   0.129E-02    0.217E-02
RMM:   6    -0.116442706053E+04   -0.35282E-05   -0.34837E-05  7107   0.801E-03    0.130E-02
RMM:   7    -0.116442706534E+04   -0.48143E-05   -0.48970E-05  6947   0.673E-03    0.913E-03
RMM:   8    -0.116442706704E+04   -0.17033E-05   -0.19111E-05  6623   0.512E-03
  17 F= -.11644271E+04 E0= -.11644219E+04  d E =-.617490E-02  mag=     3.9859
       N       E                     dE             d eps       ncg     rms          rms(c)
DAV:   1    -0.116442231093E+04    0.47544E-02   -0.52553E+00 12800   0.263E+00    0.427E-01
RMM:   2    -0.116443392089E+04   -0.11610E-01   -0.12672E-01 12300   0.427E-01    0.265E-01
RMM:   3    -0.116443367698E+04    0.24391E-03   -0.52289E-03 12350   0.104E-01    0.175E-01
RMM:   4    -0.116443340888E+04    0.26810E-03   -0.16282E-03 13025   0.374E-02    0.701E-02
RMM:   5    -0.116443339626E+04    0.12612E-04   -0.26897E-04  9674   0.152E-02    0.225E-02
RMM:   6    -0.116443339980E+04   -0.35371E-05   -0.39166E-05  7218   0.876E-03    0.141E-02
RMM:   7    -0.116443340557E+04   -0.57726E-05   -0.62963E-05  7096   0.721E-03    0.821E-03
RMM:   8    -0.116443340808E+04   -0.25088E-05   -0.30385E-05  6715   0.571E-03
  18 F= -.11644334E+04 E0= -.11644283E+04  d E =-.634104E-02  mag=     3.9859
       N       E                     dE             d eps       ncg     rms          rms(c)
DAV:   1    -0.116443054326E+04    0.28623E-02   -0.33139E+00 12776   0.209E+00    0.341E-01
RMM:   2    -0.116443787299E+04   -0.73297E-02   -0.80076E-02 12297   0.339E-01    0.207E-01
RMM:   3    -0.116443770987E+04    0.16312E-03   -0.33154E-03 12282   0.830E-02    0.136E-01
RMM:   4    -0.116443753228E+04    0.17759E-03   -0.10476E-03 12246   0.303E-02    0.465E-02
RMM:   5    -0.116443753726E+04   -0.49810E-05   -0.14526E-04  7621   0.121E-02    0.177E-02
RMM:   6    -0.116443754106E+04   -0.38004E-05   -0.38883E-05  7080   0.774E-03    0.111E-02
RMM:   7    -0.116443754491E+04   -0.38502E-05   -0.41688E-05  6856   0.649E-03    0.718E-03
RMM:   8    -0.116443754675E+04   -0.18380E-05   -0.19907E-05  6524   0.501E-03
  19 F= -.11644375E+04 E0= -.11644324E+04  d E =-.413866E-02  mag=     3.9860
       N       E                     dE             d eps       ncg     rms          rms(c)
DAV:   1    -0.116443571834E+04    0.18266E-02   -0.22233E+00 12824   0.171E+00    0.278E-01
RMM:   2    -0.116444061378E+04   -0.48954E-02   -0.53673E-02 12303   0.278E-01    0.168E-01
RMM:   3    -0.116444049680E+04    0.11698E-03   -0.22274E-03 12204   0.682E-02    0.111E-01
RMM:   4    -0.116444037965E+04    0.11715E-03   -0.71625E-04 11530   0.252E-02    0.352E-02
RMM:   5    -0.116444037880E+04    0.84870E-06   -0.90099E-05  7267   0.102E-02    0.144E-02
RMM:   6    -0.116444038286E+04   -0.40658E-05   -0.36672E-05  7011   0.665E-03    0.914E-03
RMM:   7    -0.116444038514E+04   -0.22796E-05   -0.24782E-05  6675   0.549E-03    0.575E-03
RMM:   8    -0.116444038672E+04   -0.15771E-05   -0.15050E-05  6293   0.426E-03
  20 F= -.11644404E+04 E0= -.11644353E+04  d E =-.283997E-02  mag=     3.9860
       N       E                     dE             d eps       ncg     rms          rms(c)
DAV:   1    -0.116443868127E+04    0.17039E-02   -0.18765E+00 12816   0.157E+00    0.250E-01
RMM:   2    -0.116444278916E+04   -0.41079E-02   -0.44980E-02 12303   0.253E-01    0.150E-01
RMM:   3    -0.116444268977E+04    0.99385E-04   -0.18629E-03 12110   0.624E-02    0.993E-02
RMM:   4    -0.116444258877E+04    0.10100E-03   -0.59572E-04 10912   0.231E-02    0.304E-02
RMM:   5    -0.116444258805E+04    0.72483E-06   -0.71183E-05  7177   0.931E-03    0.133E-02
RMM:   6    -0.116444259171E+04   -0.36629E-05   -0.31399E-05  6957   0.610E-03    0.843E-03
RMM:   7    -0.116444259349E+04   -0.17779E-05   -0.19462E-05  6595   0.501E-03    0.504E-03
RMM:   8    -0.116444259477E+04   -0.12778E-05   -0.11752E-05  6123   0.390E-03
  21 F= -.11644426E+04 E0= -.11644375E+04  d E =-.220805E-02  mag=     3.9860
       N       E                     dE             d eps       ncg     rms          rms(c)
DAV:   1    -0.116444100192E+04    0.15916E-02   -0.15989E+00 12768   0.145E+00    0.235E-01
RMM:   2    -0.116444449582E+04   -0.34939E-02   -0.38403E-02 12302   0.235E-01    0.140E-01
RMM:   3    -0.116444440766E+04    0.88161E-04   -0.15835E-03 12036   0.579E-02    0.925E-02
RMM:   4    -0.116444431950E+04    0.88153E-04   -0.50169E-04 10326   0.213E-02    0.293E-02
RMM:   5    -0.116444432034E+04   -0.83787E-06   -0.63404E-05  7152   0.903E-03    0.122E-02
RMM:   6    -0.116444432366E+04   -0.33155E-05   -0.28240E-05  6985   0.587E-03    0.785E-03
RMM:   7    -0.116444432517E+04   -0.15153E-05   -0.17145E-05  6530   0.477E-03    0.467E-03
RMM:   8    -0.116444432631E+04   -0.11397E-05   -0.10530E-05  6046   0.371E-03
  22 F= -.11644443E+04 E0= -.11644392E+04  d E =-.173154E-02  mag=     3.9860
       N       E                     dE             d eps       ncg     rms          rms(c)
DAV:   1    -0.116444152580E+04    0.27994E-02   -0.20915E+00 12760   0.166E+00    0.264E-01
RMM:   2    -0.116444611670E+04   -0.45909E-02   -0.50159E-02 12298   0.268E-01    0.157E-01
RMM:   3    -0.116444600933E+04    0.10737E-03   -0.20575E-03 12118   0.658E-02    0.104E-01
RMM:   4    -0.116444590010E+04    0.10923E-03   -0.66302E-04 11139   0.242E-02    0.317E-02
RMM:   5    -0.116444589942E+04    0.68046E-06   -0.76285E-05  7197   0.960E-03    0.137E-02
RMM:   6    -0.116444590335E+04   -0.39321E-05   -0.33307E-05  7012   0.633E-03    0.873E-03
RMM:   7    -0.116444590524E+04   -0.18858E-05   -0.20454E-05  6607   0.514E-03    0.520E-03
RMM:   8    -0.116444590659E+04   -0.13487E-05   -0.12296E-05  6193   0.404E-03
  23 F= -.11644459E+04 E0= -.11644408E+04  d E =-.158027E-02  mag=     3.9860
       N       E                     dE             d eps       ncg     rms          rms(c)
DAV:   1    -0.116444442538E+04    0.14799E-02   -0.11384E+00 12896   0.122E+00    0.194E-01
RMM:   2    -0.116444692942E+04   -0.25040E-02   -0.27378E-02 12304   0.198E-01    0.116E-01
RMM:   3    -0.116444686921E+04    0.60212E-04   -0.11272E-03 11627   0.487E-02    0.770E-02
RMM:   4    -0.116444681037E+04    0.58842E-04   -0.35763E-04  9061   0.181E-02    0.261E-02
RMM:   5    -0.116444680877E+04    0.15918E-05   -0.50600E-05  7102   0.799E-03    0.103E-02
RMM:   6    -0.116444681126E+04   -0.24809E-05   -0.21315E-05  6858   0.518E-03    0.680E-03
RMM:   7    -0.116444681248E+04   -0.12266E-05   -0.12618E-05  6382   0.407E-03    0.368E-03
RMM:   8    -0.116444681335E+04   -0.86508E-06   -0.75782E-06  6113   0.329E-03
  24 F= -.11644468E+04 E0= -.11644417E+04  d E =-.906762E-03  mag=     3.9859
       N       E                     dE             d eps       ncg     rms          rms(c)
DAV:   1    -0.116444620035E+04    0.61213E-03   -0.54450E-01 12904   0.845E-01    0.135E-01
RMM:   2    -0.116444739876E+04   -0.11984E-02   -0.13141E-02 12302   0.137E-01    0.816E-02
RMM:   3    -0.116444736573E+04    0.33030E-04   -0.51861E-04  9554   0.337E-02    0.548E-02
RMM:   4    -0.116444733552E+04    0.30213E-04   -0.16345E-04  7280   0.135E-02    0.163E-02
RMM:   5    -0.116444733782E+04   -0.22942E-05   -0.32796E-05  6974   0.621E-03    0.741E-03
RMM:   6    -0.116444733929E+04   -0.14787E-05   -0.14329E-05  6623   0.409E-03    0.518E-03
RMM:   7    -0.116444734008E+04   -0.78390E-06   -0.81200E-06  6012   0.316E-03    0.307E-03
RMM:   8    -0.116444734061E+04   -0.53296E-06   -0.46651E-06  5305   0.274E-03
  25 F= -.11644473E+04 E0= -.11644422E+04  d E =-.527263E-03  mag=     3.9858
       N       E                     dE             d eps       ncg     rms          rms(c)
DAV:   1    -0.116444534294E+04    0.19971E-02   -0.12143E+00 12744   0.126E+00    0.200E-01
RMM:   2    -0.116444801138E+04   -0.26684E-02   -0.29074E-02 12299   0.204E-01    0.120E-01
RMM:   3    -0.116444794796E+04    0.63411E-04   -0.11816E-03 11686   0.500E-02    0.795E-02
RMM:   4    -0.116444788558E+04    0.62380E-04   -0.37135E-04  9091   0.184E-02    0.272E-02
RMM:   5    -0.116444788403E+04    0.15517E-05   -0.50826E-05  7094   0.804E-03    0.105E-02
RMM:   6    -0.116444788654E+04   -0.25091E-05   -0.20961E-05  6895   0.516E-03    0.687E-03
RMM:   7    -0.116444788771E+04   -0.11675E-05   -0.12278E-05  6384   0.403E-03    0.387E-03
RMM:   8    -0.116444788857E+04   -0.86003E-06   -0.76664E-06  6101   0.327E-03
  26 F= -.11644479E+04 E0= -.11644428E+04  d E =-.547959E-03  mag=     3.9857
       N       E                     dE             d eps       ncg     rms          rms(c)
DAV:   1    -0.116444713324E+04    0.75447E-03   -0.45446E-01 12800   0.772E-01    0.124E-01
RMM:   2    -0.116444813859E+04   -0.10054E-02   -0.10979E-02 12296   0.125E-01    0.766E-02
RMM:   3    -0.116444811117E+04    0.27428E-04   -0.42070E-04  8914   0.307E-02    0.513E-02
RMM:   4    -0.116444808720E+04    0.23969E-04   -0.13536E-04  7167   0.124E-02    0.177E-02
RMM:   5    -0.116444808929E+04   -0.20966E-05   -0.30704E-05  6925   0.612E-03    0.681E-03
RMM:   6    -0.116444809072E+04   -0.14251E-05   -0.13273E-05  6553   0.402E-03    0.513E-03
RMM:   7    -0.116444809147E+04   -0.74790E-06   -0.72112E-06  5622   0.310E-03    0.283E-03
RMM:   8    -0.116444809199E+04   -0.52102E-06   -0.42665E-06  4901   0.268E-03
  27 F= -.11644481E+04 E0= -.11644430E+04  d E =-.203417E-03  mag=     3.9857
