       N       E                     dE             d eps       ncg     rms          rms(c)
DAV:   1    -0.115735559490E+04   -0.11574E+04   -0.14726E-05  3904   0.112E-02    0.175E-02
RMM:   2    -0.115735559861E+04   -0.37077E-05   -0.13700E-05  3202   0.637E-03    0.287E-02
RMM:   3    -0.115735560007E+04   -0.14574E-05   -0.57630E-06  2481   0.304E-03    0.543E-03
RMM:   4    -0.115735560211E+04   -0.20454E-05   -0.29430E-06  2053   0.309E-03    0.650E-03
RMM:   5    -0.115735560297E+04   -0.85212E-06   -0.15495E-06  1524   0.224E-03    0.533E-03
RMM:   6    -0.115735560205E+04    0.91833E-06   -0.66741E-07  1200   0.220E-03    0.559E-03
RMM:   7    -0.115735560554E+04   -0.34961E-05   -0.13450E-06  1417   0.234E-03    0.590E-03
RMM:   8    -0.115735561275E+04   -0.72021E-05   -0.73727E-06  2111   0.347E-03
   1 F= -.11573556E+04 E0= -.11573556E+04  d E =-.115736E+04  mag=    14.0000
       N       E                     dE             d eps       ncg     rms          rms(c)
DAV:   1    -0.115735586310E+04   -0.25756E-03   -0.45156E-01  6288   0.786E-01    0.212E-01
RMM:   2    -0.115735700900E+04   -0.11459E-02   -0.12727E-02  6137   0.148E-01    0.160E-01
RMM:   3    -0.115735702172E+04   -0.12723E-04   -0.63763E-04  5376   0.497E-02    0.100E-01
RMM:   4    -0.115735696796E+04    0.53755E-04   -0.18233E-04  3859   0.179E-02    0.598E-02
RMM:   5    -0.115735696304E+04    0.49231E-05   -0.63255E-05  3561   0.120E-02    0.493E-02
RMM:   6    -0.115735696620E+04   -0.31562E-05   -0.25512E-05  3448   0.820E-03    0.158E-02
RMM:   7    -0.115735696827E+04   -0.20746E-05   -0.11061E-05  3332   0.516E-03    0.110E-02
RMM:   8    -0.115735696988E+04   -0.16075E-05   -0.63720E-06  3081   0.415E-03
   2 F= -.11573570E+04 E0= -.11573570E+04  d E =-.135713E-02  mag=    14.0000
       N       E                     dE             d eps       ncg     rms          rms(c)
DAV:   1    -0.115735752822E+04   -0.55995E-03   -0.89364E-02  6240   0.353E-01    0.962E-02
RMM:   2    -0.115735767692E+04   -0.14870E-03   -0.26456E-03  6124   0.664E-02    0.789E-02
RMM:   3    -0.115735765552E+04    0.21394E-04   -0.11594E-04  3612   0.227E-02    0.511E-02
RMM:   4    -0.115735763725E+04    0.18269E-04   -0.70496E-05  3525   0.106E-02    0.309E-02
RMM:   5    -0.115735763579E+04    0.14670E-05   -0.24717E-05  3407   0.738E-03    0.266E-02
RMM:   6    -0.115735763718E+04   -0.13947E-05   -0.10426E-05  3148   0.487E-03    0.115E-02
RMM:   7    -0.115735763834E+04   -0.11570E-05   -0.45334E-06  2572   0.345E-03    0.790E-03
RMM:   8    -0.115735763971E+04   -0.13754E-05   -0.31598E-06  2391   0.285E-03
   3 F= -.11573576E+04 E0= -.11573576E+04  d E =-.669835E-03  mag=    14.0000
       N       E                     dE             d eps       ncg     rms          rms(c)
DAV:   1    -0.115735795932E+04   -0.32098E-03   -0.16789E-01  6256   0.482E-01    0.111E-01
RMM:   2    -0.115735835532E+04   -0.39600E-03   -0.43799E-03  6253   0.848E-02    0.799E-02
RMM:   3    -0.115735835269E+04    0.26384E-05   -0.18898E-04  3803   0.289E-02    0.491E-02
RMM:   4    -0.115735834185E+04    0.10834E-04   -0.63150E-05  3486   0.107E-02    0.261E-02
RMM:   5    -0.115735834244E+04   -0.58710E-06   -0.24119E-05  3401   0.711E-03    0.126E-02
RMM:   6    -0.115735834390E+04   -0.14637E-05   -0.94553E-06  3210   0.477E-03    0.837E-03
RMM:   7    -0.115735834482E+04   -0.92131E-06   -0.49410E-06  2670   0.343E-03    0.469E-03
RMM:   8    -0.115735834604E+04   -0.12198E-05   -0.31457E-06  2199   0.296E-03
   4 F= -.11573583E+04 E0= -.11573583E+04  d E =-.706329E-03  mag=    14.0000
