       N       E                     dE             d eps       ncg     rms          rms(c)
DAV:   1     0.121115861919E+05    0.12112E+05   -0.42581E+05  6168   0.132E+03
DAV:   2     0.720947808155E+03   -0.11391E+05   -0.10183E+05  6144   0.381E+02
DAV:   3    -0.134685943784E+04   -0.20678E+04   -0.19897E+04  6608   0.168E+02
DAV:   4    -0.149104374714E+04   -0.14418E+03   -0.14167E+03  8136   0.472E+01
DAV:   5    -0.150089924801E+04   -0.98555E+01   -0.98046E+01 11088   0.113E+01    0.181E+02
RMM:   6    -0.116189122203E+04    0.33901E+03   -0.16480E+03  6265   0.363E+01    0.132E+02
RMM:   7    -0.114434278437E+04    0.17548E+02   -0.66825E+01  6395   0.128E+01    0.777E+01
RMM:   8    -0.114798867730E+04   -0.36459E+01   -0.22388E+01  7217   0.519E+00    0.382E+01
RMM:   9    -0.115252977124E+04   -0.45411E+01   -0.74325E+00  6575   0.322E+00    0.113E+01
RMM:  10    -0.115405693806E+04   -0.15272E+01   -0.20353E+00  7050   0.152E+00    0.744E+00
RMM:  11    -0.115490928777E+04   -0.85235E+00   -0.89829E-01  7923   0.839E-01    0.478E+00
RMM:  12    -0.115574089051E+04   -0.83160E+00   -0.59791E-01  7070   0.689E-01    0.273E+00
RMM:  13    -0.115615763202E+04   -0.41674E+00   -0.39408E-01  6919   0.588E-01    0.140E+00
RMM:  14    -0.115623938048E+04   -0.81748E-01   -0.15001E-01  7506   0.363E-01    0.717E-01
RMM:  15    -0.115625222044E+04   -0.12840E-01   -0.47034E-02  7548   0.193E-01    0.478E-01
RMM:  16    -0.115625460152E+04   -0.23811E-02   -0.12134E-02  8662   0.954E-02    0.237E-01
RMM:  17    -0.115625564381E+04   -0.10423E-02   -0.48704E-03  7752   0.526E-02    0.117E-01
RMM:  18    -0.115625605562E+04   -0.41181E-03   -0.18272E-03  5967   0.310E-02    0.731E-02
RMM:  19    -0.115625645071E+04   -0.39510E-03   -0.11359E-03  5315   0.235E-02    0.548E-02
RMM:  20    -0.115625677564E+04   -0.32493E-03   -0.73304E-04  5081   0.188E-02    0.500E-02
RMM:  21    -0.115625725215E+04   -0.47651E-03   -0.70467E-04  5007   0.218E-02    0.451E-02
RMM:  22    -0.115625760452E+04   -0.35237E-03   -0.52727E-04  4845   0.178E-02    0.410E-02
RMM:  23    -0.115625812169E+04   -0.51717E-03   -0.82042E-04  4882   0.239E-02    0.364E-02
RMM:  24    -0.115625895263E+04   -0.83093E-03   -0.37226E-03  4988   0.514E-02    0.298E-02
RMM:  25    -0.115625942315E+04   -0.47052E-03   -0.23016E-03  4956   0.371E-02    0.244E-02
RMM:  26    -0.115625965902E+04   -0.23587E-03   -0.83506E-04  4745   0.228E-02    0.212E-02
RMM:  27    -0.115625978118E+04   -0.12217E-03   -0.47213E-04  4314   0.173E-02    0.160E-02
RMM:  28    -0.115625985967E+04   -0.78487E-04   -0.90244E-04  4433   0.252E-02
   1 F= -.11562599E+04 E0= -.11562599E+04  d E =-.115626E+04  mag=    13.9999
       N       E                     dE             d eps       ncg     rms          rms(c)
DAV:   1    -0.114634755478E+04    0.99122E+01   -0.50277E+02  7344   0.202E+01    0.195E+01
RMM:   2    -0.115598304310E+04   -0.96355E+01   -0.29086E+01  6483   0.540E+00    0.209E+01
RMM:   3    -0.115634613690E+04   -0.36309E+00   -0.18330E+00  6492   0.189E+00    0.752E+00
RMM:   4    -0.115629157873E+04    0.54558E-01   -0.59869E-01  6662   0.755E-01    0.765E+00
RMM:   5    -0.115626003906E+04    0.31540E-01   -0.14170E-01  6532   0.322E-01    0.301E+00
RMM:   6    -0.115626221214E+04   -0.21731E-02   -0.87398E-02  6523   0.322E-01    0.172E+00
RMM:   7    -0.115626371254E+04   -0.15004E-02   -0.10687E-02  7337   0.996E-02    0.469E-01
RMM:   8    -0.115626345188E+04    0.26065E-03   -0.35018E-03  7687   0.444E-02    0.404E-01
RMM:   9    -0.115626349387E+04   -0.41991E-04   -0.91496E-04  6340   0.270E-02
   2 F= -.11562635E+04 E0= -.11562635E+04  d E =-.363420E-02  mag=    14.0000
       N       E                     dE             d eps       ncg     rms          rms(c)
DAV:   1    -0.115593665713E+04    0.32679E+00   -0.84355E+01  6816   0.804E+00    0.722E+00
RMM:   2    -0.115667666610E+04   -0.74001E+00   -0.24909E+00  6186   0.176E+00    0.559E+00
RMM:   3    -0.115675936606E+04   -0.82700E-01   -0.15661E-01  6216   0.647E-01    0.235E+00
RMM:   4    -0.115674250458E+04    0.16861E-01   -0.45929E-02  6943   0.209E-01    0.145E+00
RMM:   5    -0.115673038277E+04    0.12122E-01   -0.32727E-02  6394   0.178E-01    0.833E-01
RMM:   6    -0.115673007516E+04    0.30761E-03   -0.78537E-03  6784   0.824E-02    0.365E-01
RMM:   7    -0.115673000245E+04    0.72709E-04   -0.96025E-04  6286   0.272E-02    0.224E-01
RMM:   8    -0.115672998495E+04    0.17497E-04   -0.40466E-04  5097   0.206E-02
   3 F= -.11567300E+04 E0= -.11567300E+04  d E =-.466491E+00  mag=    14.0000
       N       E                     dE             d eps       ncg     rms          rms(c)
DAV:   1    -0.115673489857E+04   -0.48961E-02   -0.11339E+01  6784   0.339E+00    0.220E+00
RMM:   2    -0.115679453120E+04   -0.59633E-01   -0.33198E-01  6171   0.710E-01    0.158E+00
RMM:   3    -0.115680066247E+04   -0.61313E-02   -0.17913E-02  6302   0.225E-01    0.826E-01
RMM:   4    -0.115679824353E+04    0.24189E-02   -0.77353E-03  6421   0.926E-02    0.446E-01
RMM:   5    -0.115679779953E+04    0.44401E-03   -0.19945E-03  5789   0.539E-02    0.144E-01
RMM:   6    -0.115679781094E+04   -0.11409E-04   -0.34484E-04  4848   0.181E-02    0.863E-02
RMM:   7    -0.115679781201E+04   -0.10723E-05   -0.81918E-05  3917   0.118E-02    0.628E-02
RMM:   8    -0.115679781896E+04   -0.69574E-05   -0.55286E-05  3735   0.880E-03
   4 F= -.11567978E+04 E0= -.11567978E+04  d E =-.678340E-01  mag=    14.0000
       N       E                     dE             d eps       ncg     rms          rms(c)
DAV:   1    -0.115677579390E+04    0.22018E-01   -0.10198E+01  6576   0.329E+00    0.193E+00
RMM:   2    -0.115682745943E+04   -0.51666E-01   -0.25101E-01  6222   0.619E-01    0.123E+00
RMM:   3    -0.115683373422E+04   -0.62748E-02   -0.13833E-02  6385   0.205E-01    0.643E-01
RMM:   4    -0.115683249109E+04    0.12431E-02   -0.58059E-03  6624   0.778E-02    0.339E-01
RMM:   5    -0.115683238164E+04    0.10946E-03   -0.13793E-03  5932   0.381E-02    0.186E-01
RMM:   6    -0.115683239140E+04   -0.97643E-05   -0.19575E-04  4244   0.151E-02    0.642E-02
RMM:   7    -0.115683239170E+04   -0.30317E-06   -0.10443E-04  3815   0.121E-02    0.503E-02
RMM:   8    -0.115683240061E+04   -0.89041E-05   -0.61133E-05  3651   0.999E-03
   5 F= -.11568324E+04 E0= -.11568324E+04  d E =-.345816E-01  mag=    14.0000
       N       E                     dE             d eps       ncg     rms          rms(c)
DAV:   1    -0.115683438631E+04   -0.19946E-02   -0.68364E+00  6520   0.288E+00    0.914E-01
RMM:   2    -0.115685383098E+04   -0.19445E-01   -0.16634E-01  6261   0.515E-01    0.613E-01
RMM:   3    -0.115685495235E+04   -0.11214E-02   -0.94369E-03  6488   0.165E-01    0.341E-01
RMM:   4    -0.115685441220E+04    0.54014E-03   -0.22738E-03  7059   0.525E-02    0.192E-01
RMM:   5    -0.115685428639E+04    0.12581E-03   -0.97332E-04  5972   0.304E-02    0.660E-02
RMM:   6    -0.115685429203E+04   -0.56363E-05   -0.12913E-04  3905   0.150E-02    0.431E-02
RMM:   7    -0.115685429533E+04   -0.33045E-05   -0.62633E-05  3631   0.932E-03    0.226E-02
RMM:   8    -0.115685429887E+04   -0.35377E-05   -0.40862E-05  3536   0.848E-03
   6 F= -.11568543E+04 E0= -.11568543E+04  d E =-.218983E-01  mag=    14.0000
       N       E                     dE             d eps       ncg     rms          rms(c)
DAV:   1    -0.115685270425E+04    0.15911E-02   -0.87585E+00  6336   0.328E+00    0.780E-01
RMM:   2    -0.115687367725E+04   -0.20973E-01   -0.21080E-01  6247   0.581E-01    0.530E-01
RMM:   3    -0.115687437088E+04   -0.69363E-03   -0.12417E-02  6568   0.184E-01    0.339E-01
RMM:   4    -0.115687383788E+04    0.53300E-03   -0.23380E-03  7371   0.532E-02    0.205E-01
RMM:   5    -0.115687364633E+04    0.19155E-03   -0.13303E-03  6036   0.329E-02    0.598E-02
RMM:   6    -0.115687364899E+04   -0.26609E-05   -0.15618E-04  4039   0.167E-02    0.482E-02
RMM:   7    -0.115687365436E+04   -0.53678E-05   -0.68470E-05  3666   0.968E-03    0.235E-02
RMM:   8    -0.115687365711E+04   -0.27495E-05   -0.50255E-05  3572   0.907E-03
   7 F= -.11568737E+04 E0= -.11568737E+04  d E =-.193582E-01  mag=    14.0000
       N       E                     dE             d eps       ncg     rms          rms(c)
DAV:   1    -0.115687106558E+04    0.25888E-02   -0.64177E+00  6352   0.282E+00    0.639E-01
RMM:   2    -0.115688655421E+04   -0.15489E-01   -0.15328E-01  6283   0.489E-01    0.403E-01
RMM:   3    -0.115688699124E+04   -0.43703E-03   -0.83464E-03  6494   0.156E-01    0.253E-01
RMM:   4    -0.115688663934E+04    0.35190E-03   -0.17669E-03  7184   0.460E-02    0.142E-01
RMM:   5    -0.115688655750E+04    0.81844E-04   -0.73892E-04  5841   0.260E-02    0.520E-02
RMM:   6    -0.115688656315E+04   -0.56463E-05   -0.11182E-04  3773   0.138E-02    0.339E-02
RMM:   7    -0.115688656814E+04   -0.49978E-05   -0.55735E-05  3597   0.904E-03    0.173E-02
RMM:   8    -0.115688657088E+04   -0.27389E-05   -0.38565E-05  3491   0.838E-03
   8 F= -.11568866E+04 E0= -.11568866E+04  d E =-.129138E-01  mag=    14.0000
       N       E                     dE             d eps       ncg     rms          rms(c)
DAV:   1    -0.115688361811E+04    0.29500E-02   -0.59227E+00  6304   0.272E+00    0.543E-01
RMM:   2    -0.115689723735E+04   -0.13619E-01   -0.14150E-01  6285   0.468E-01    0.346E-01
RMM:   3    -0.115689739517E+04   -0.15782E-03   -0.73875E-03  6442   0.150E-01    0.226E-01
RMM:   4    -0.115689709404E+04    0.30114E-03   -0.16140E-03  7081   0.443E-02    0.124E-01
RMM:   5    -0.115689704988E+04    0.44155E-04   -0.59866E-04  5613   0.240E-02    0.404E-02
RMM:   6    -0.115689705549E+04   -0.56093E-05   -0.92359E-05  3718   0.130E-02    0.285E-02
RMM:   7    -0.115689705999E+04   -0.44952E-05   -0.51010E-05  3559   0.863E-03    0.159E-02
RMM:   8    -0.115689706218E+04   -0.21921E-05   -0.34637E-05  3464   0.808E-03
   9 F= -.11568971E+04 E0= -.11568971E+04  d E =-.104913E-01  mag=    14.0000
       N       E                     dE             d eps       ncg     rms          rms(c)
DAV:   1    -0.115689386954E+04    0.31904E-02   -0.51924E+00  6336   0.256E+00    0.491E-01
RMM:   2    -0.115690583611E+04   -0.11967E-01   -0.12381E-01  6285   0.436E-01    0.308E-01
RMM:   3    -0.115690594907E+04   -0.11296E-03   -0.62891E-03  6400   0.142E-01    0.198E-01
RMM:   4    -0.115690570957E+04    0.23950E-03   -0.13871E-03  6993   0.414E-02    0.115E-01
RMM:   5    -0.115690566057E+04    0.49006E-04   -0.56029E-04  5544   0.234E-02    0.463E-02
RMM:   6    -0.115690566438E+04   -0.38103E-05   -0.81973E-05  3648   0.129E-02    0.256E-02
RMM:   7    -0.115690566853E+04   -0.41524E-05   -0.44738E-05  3536   0.852E-03    0.141E-02
RMM:   8    -0.115690567066E+04   -0.21257E-05   -0.31185E-05  3448   0.800E-03
  10 F= -.11569057E+04 E0= -.11569057E+04  d E =-.860848E-02  mag=    14.0000
       N       E                     dE             d eps       ncg     rms          rms(c)
DAV:   1    -0.115690569696E+04   -0.28429E-04   -0.19987E+00  6464   0.158E+00    0.353E-01
RMM:   2    -0.115691058696E+04   -0.48900E-02   -0.47456E-02  6340   0.269E-01    0.214E-01
RMM:   3    -0.115691067401E+04   -0.87048E-04   -0.23437E-03  6328   0.862E-02    0.125E-01
RMM:   4    -0.115691056109E+04    0.11292E-03   -0.53827E-04  5512   0.263E-02    0.669E-02
RMM:   5    -0.115691053939E+04    0.21695E-04   -0.18190E-04  3907   0.168E-02    0.336E-02
RMM:   6    -0.115691054403E+04   -0.46401E-05   -0.43631E-05  3524   0.107E-02    0.199E-02
RMM:   7    -0.115691054660E+04   -0.25627E-05   -0.25734E-05  3430   0.686E-03    0.105E-02
RMM:   8    -0.115691054796E+04   -0.13609E-05   -0.16234E-05  3358   0.629E-03
  11 F= -.11569105E+04 E0= -.11569105E+04  d E =-.487730E-02  mag=    14.0000
       N       E                     dE             d eps       ncg     rms          rms(c)
DAV:   1    -0.115690179923E+04    0.87474E-02   -0.72094E+00  6320   0.302E+00    0.598E-01
RMM:   2    -0.115691864890E+04   -0.16850E-01   -0.17060E-01  6285   0.511E-01    0.364E-01
RMM:   3    -0.115691888769E+04   -0.23879E-03   -0.85984E-03  6411   0.167E-01    0.230E-01
RMM:   4    -0.115691855670E+04    0.33099E-03   -0.18991E-03  7235   0.485E-02    0.128E-01
RMM:   5    -0.115691849948E+04    0.57216E-04   -0.70980E-04  5903   0.261E-02    0.554E-02
RMM:   6    -0.115691850358E+04   -0.40989E-05   -0.94070E-05  3724   0.135E-02    0.265E-02
RMM:   7    -0.115691850887E+04   -0.52856E-05   -0.51327E-05  3562   0.912E-03    0.155E-02
RMM:   8    -0.115691851188E+04   -0.30195E-05   -0.36623E-05  3480   0.844E-03
  12 F= -.11569185E+04 E0= -.11569185E+04  d E =-.796393E-02  mag=    14.0000
       N       E                     dE             d eps       ncg     rms          rms(c)
DAV:   1    -0.115691731472E+04    0.11941E-02   -0.21302E+00  6368   0.164E+00    0.344E-01
RMM:   2    -0.115692247143E+04   -0.51567E-02   -0.50751E-02  6352   0.278E-01    0.205E-01
RMM:   3    -0.115692255737E+04   -0.85932E-04   -0.25014E-03  6342   0.891E-02    0.122E-01
RMM:   4    -0.115692245711E+04    0.10026E-03   -0.53424E-04  5414   0.264E-02    0.681E-02
RMM:   5    -0.115692243468E+04    0.22428E-04   -0.20438E-04  3965   0.174E-02    0.337E-02
RMM:   6    -0.115692243938E+04   -0.47022E-05   -0.45657E-05  3531   0.111E-02    0.182E-02
RMM:   7    -0.115692244239E+04   -0.30018E-05   -0.27311E-05  3435   0.700E-03    0.103E-02
RMM:   8    -0.115692244426E+04   -0.18799E-05   -0.16946E-05  3350   0.653E-03
  13 F= -.11569224E+04 E0= -.11569224E+04  d E =-.393238E-02  mag=    14.0000
       N       E                     dE             d eps       ncg     rms          rms(c)
DAV:   1    -0.115692018897E+04    0.22534E-02   -0.24456E+00  6368   0.176E+00    0.380E-01
RMM:   2    -0.115692617554E+04   -0.59866E-02   -0.57847E-02  6313   0.299E-01    0.222E-01
RMM:   3    -0.115692632459E+04   -0.14905E-03   -0.29261E-03  6356   0.961E-02    0.129E-01
RMM:   4    -0.115692621139E+04    0.11320E-03   -0.59105E-04  5587   0.280E-02    0.725E-02
RMM:   5    -0.115692618350E+04    0.27891E-04   -0.23481E-04  4057   0.182E-02    0.359E-02
RMM:   6    -0.115692618838E+04   -0.48802E-05   -0.47803E-05  3535   0.114E-02    0.198E-02
RMM:   7    -0.115692619142E+04   -0.30357E-05   -0.27097E-05  3446   0.716E-03    0.110E-02
RMM:   8    -0.115692619328E+04   -0.18688E-05   -0.16885E-05  3343   0.663E-03
  14 F= -.11569262E+04 E0= -.11569262E+04  d E =-.374902E-02  mag=    14.0000
       N       E                     dE             d eps       ncg     rms          rms(c)
DAV:   1    -0.115692624554E+04   -0.54128E-04   -0.87236E-01  6384   0.106E+00    0.246E-01
RMM:   2    -0.115692844189E+04   -0.21963E-02   -0.20843E-02  6328   0.181E-01    0.142E-01
RMM:   3    -0.115692850850E+04   -0.66609E-04   -0.10657E-03  5658   0.572E-02    0.792E-02
RMM:   4    -0.115692846118E+04    0.47319E-04   -0.19507E-04  3878   0.178E-02    0.449E-02
RMM:   5    -0.115692845147E+04    0.97132E-05   -0.90277E-05  3588   0.129E-02    0.240E-02
RMM:   6    -0.115692845492E+04   -0.34503E-05   -0.28956E-05  3472   0.854E-03    0.187E-02
RMM:   7    -0.115692845676E+04   -0.18368E-05   -0.15974E-05  3320   0.568E-03    0.943E-03
RMM:   8    -0.115692845795E+04   -0.11887E-05   -0.97414E-06  3085   0.500E-03
  15 F= -.11569285E+04 E0= -.11569285E+04  d E =-.226466E-02  mag=    14.0000
       N       E                     dE             d eps       ncg     rms          rms(c)
DAV:   1    -0.115692819033E+04    0.26643E-03   -0.10096E+00  6376   0.114E+00    0.258E-01
RMM:   2    -0.115693070558E+04   -0.25153E-02   -0.24102E-02  6269   0.195E-01    0.152E-01
RMM:   3    -0.115693078807E+04   -0.82492E-04   -0.12744E-03  5833   0.627E-02    0.859E-02
RMM:   4    -0.115693073540E+04    0.52675E-04   -0.21931E-04  3949   0.186E-02    0.497E-02
RMM:   5    -0.115693072233E+04    0.13067E-04   -0.99963E-05  3603   0.134E-02    0.283E-02
RMM:   6    -0.115693072589E+04   -0.35642E-05   -0.30454E-05  3473   0.889E-03    0.178E-02
RMM:   7    -0.115693072777E+04   -0.18780E-05   -0.16269E-05  3328   0.572E-03    0.926E-03
RMM:   8    -0.115693072893E+04   -0.11539E-05   -0.96860E-06  3123   0.504E-03
  16 F= -.11569307E+04 E0= -.11569307E+04  d E =-.227098E-02  mag=    14.0000
       N       E                     dE             d eps       ncg     rms          rms(c)
DAV:   1    -0.115693106100E+04   -0.33323E-03   -0.70412E-01  6384   0.947E-01    0.222E-01
RMM:   2    -0.115693282737E+04   -0.17664E-02   -0.16753E-02  6269   0.163E-01    0.130E-01
RMM:   3    -0.115693289254E+04   -0.65172E-04   -0.90159E-04  5418   0.519E-02    0.721E-02
RMM:   4    -0.115693285372E+04    0.38824E-04   -0.14568E-04  3700   0.160E-02    0.421E-02
RMM:   5    -0.115693284498E+04    0.87423E-05   -0.71082E-05  3549   0.114E-02    0.260E-02
RMM:   6    -0.115693284795E+04   -0.29706E-05   -0.24399E-05  3435   0.783E-03    0.151E-02
RMM:   7    -0.115693284949E+04   -0.15414E-05   -0.13185E-05  3243   0.520E-03    0.874E-03
RMM:   8    -0.115693285038E+04   -0.88911E-06   -0.75274E-06  2889   0.454E-03
  17 F= -.11569329E+04 E0= -.11569329E+04  d E =-.212145E-02  mag=    14.0000
       N       E                     dE             d eps       ncg     rms          rms(c)
DAV:   1    -0.115693290642E+04   -0.56934E-04   -0.72672E-01  6336   0.958E-01    0.218E-01
RMM:   2    -0.115693469343E+04   -0.17870E-02   -0.17079E-02  6251   0.164E-01    0.127E-01
RMM:   3    -0.115693475552E+04   -0.62090E-04   -0.91559E-04  5428   0.528E-02    0.706E-02
RMM:   4    -0.115693471762E+04    0.37899E-04   -0.14967E-04  3726   0.159E-02    0.415E-02
RMM:   5    -0.115693470751E+04    0.10108E-04   -0.71976E-05  3540   0.115E-02    0.285E-02
RMM:   6    -0.115693471033E+04   -0.28168E-05   -0.24621E-05  3442   0.785E-03    0.150E-02
RMM:   7    -0.115693471183E+04   -0.14986E-05   -0.12834E-05  3233   0.516E-03    0.868E-03
RMM:   8    -0.115693471263E+04   -0.80092E-06   -0.73294E-06  2879   0.445E-03
  18 F= -.11569347E+04 E0= -.11569347E+04  d E =-.186225E-02  mag=    14.0000
