       N       E                     dE             d eps       ncg     rms          rms(c)
DAV:   1    -0.116300213313E+04   -0.11630E+04   -0.26691E-05  8024   0.127E-02    0.133E-02
RMM:   2    -0.116300216245E+04   -0.29320E-04   -0.28437E-05  6215   0.761E-03    0.182E-02
RMM:   3    -0.116300216887E+04   -0.64228E-05   -0.97086E-06  4582   0.336E-03    0.146E-02
RMM:   4    -0.116300216280E+04    0.60788E-05   -0.27308E-06  3784   0.303E-03    0.148E-02
RMM:   5    -0.116300216225E+04    0.54359E-06   -0.11727E-06  2493   0.211E-03    0.147E-02
RMM:   6    -0.116300216606E+04   -0.38070E-05   -0.86205E-07  2306   0.221E-03    0.145E-02
RMM:   7    -0.116300224413E+04   -0.78072E-04   -0.71132E-05  5793   0.969E-03    0.188E-02
RMM:   8    -0.116300228361E+04   -0.39477E-04   -0.45660E-05  4470   0.579E-03
   1 F= -.11630023E+04 E0= -.11630011E+04  d E =-.116300E+04  mag=     5.9831
       N       E                     dE             d eps       ncg     rms          rms(c)
DAV:   1    -0.116300180204E+04    0.44210E-03   -0.28508E-01 12728   0.570E-01    0.265E-01
RMM:   2    -0.116300311139E+04   -0.13094E-02   -0.71868E-03 12381   0.107E-01    0.157E-01
RMM:   3    -0.116300325113E+04   -0.13974E-03   -0.37967E-04  9107   0.368E-02    0.774E-02
RMM:   4    -0.116300327709E+04   -0.25959E-04   -0.12707E-04  7352   0.154E-02    0.422E-02
RMM:   5    -0.116300330859E+04   -0.31502E-04   -0.55672E-05  6998   0.899E-03    0.252E-02
RMM:   6    -0.116300332899E+04   -0.20402E-04   -0.21684E-05  6679   0.648E-03    0.174E-02
RMM:   7    -0.116300334815E+04   -0.19156E-04   -0.14092E-05  5846   0.446E-03    0.158E-02
RMM:   8    -0.116300337638E+04   -0.28230E-04   -0.15982E-05  5491   0.469E-03
   2 F= -.11630034E+04 E0= -.11630023E+04  d E =-.109277E-02  mag=     5.9834
       N       E                     dE             d eps       ncg     rms          rms(c)
DAV:   1    -0.116300367333E+04   -0.32518E-03   -0.72994E-02 12336   0.304E-01    0.992E-02
RMM:   2    -0.116300389412E+04   -0.22080E-03   -0.19599E-03 12204   0.558E-02    0.751E-02
RMM:   3    -0.116300390450E+04   -0.10375E-04   -0.91805E-05  7123   0.196E-02    0.447E-02
RMM:   4    -0.116300392391E+04   -0.19410E-04   -0.63404E-05  6946   0.987E-03    0.261E-02
RMM:   5    -0.116300394455E+04   -0.20645E-04   -0.26166E-05  6385   0.566E-03    0.166E-02
RMM:   6    -0.116300395569E+04   -0.11140E-04   -0.90605E-06  5482   0.415E-03    0.137E-02
RMM:   7    -0.116300396843E+04   -0.12739E-04   -0.72486E-06  4270   0.336E-03    0.130E-02
RMM:   8    -0.116300398743E+04   -0.19000E-04   -0.97687E-06  4521   0.361E-03
   3 F= -.11630040E+04 E0= -.11630029E+04  d E =-.611054E-03  mag=     5.9833
       N       E                     dE             d eps       ncg     rms          rms(c)
DAV:   1    -0.116300416932E+04   -0.20089E-03   -0.11173E-01 12408   0.378E-01    0.117E-01
RMM:   2    -0.116300453351E+04   -0.36419E-03   -0.27249E-03 12563   0.654E-02    0.674E-02
RMM:   3    -0.116300455951E+04   -0.25994E-04   -0.12709E-04  7256   0.229E-02    0.371E-02
RMM:   4    -0.116300457609E+04   -0.16583E-04   -0.51309E-05  6991   0.909E-03    0.207E-02
RMM:   5    -0.116300459663E+04   -0.20536E-04   -0.24403E-05  6669   0.577E-03    0.136E-02
RMM:   6    -0.116300460886E+04   -0.12232E-04   -0.10703E-05  5877   0.416E-03    0.119E-02
RMM:   7    -0.116300462146E+04   -0.12605E-04   -0.76247E-06  4712   0.362E-03    0.111E-02
RMM:   8    -0.116300465033E+04   -0.28865E-04   -0.23020E-05  5391   0.525E-03
   4 F= -.11630047E+04 E0= -.11630035E+04  d E =-.662897E-03  mag=     5.9834
       N       E                     dE             d eps       ncg     rms          rms(c)
DAV:   1    -0.116300483410E+04   -0.21264E-03   -0.87366E-02 12352   0.333E-01    0.100E-01
RMM:   2    -0.116300510889E+04   -0.27479E-03   -0.20906E-03 12321   0.572E-02    0.567E-02
RMM:   3    -0.116300512815E+04   -0.19259E-04   -0.99551E-05  7095   0.210E-02    0.312E-02
RMM:   4    -0.116300514087E+04   -0.12718E-04   -0.42085E-05  6909   0.820E-03    0.181E-02
RMM:   5    -0.116300515555E+04   -0.14679E-04   -0.18460E-05  6413   0.498E-03    0.139E-02
RMM:   6    -0.116300516425E+04   -0.87042E-05   -0.79930E-06  5314   0.398E-03    0.106E-02
RMM:   7    -0.116300517449E+04   -0.10237E-04   -0.67534E-06  4368   0.329E-03    0.978E-03
RMM:   8    -0.116300518970E+04   -0.15208E-04   -0.10145E-05  4718   0.368E-03
   5 F= -.11630052E+04 E0= -.11630041E+04  d E =-.539366E-03  mag=     5.9834
       N       E                     dE             d eps       ncg     rms          rms(c)
DAV:   1    -0.116300524743E+04   -0.72946E-04   -0.17155E-01 12464   0.469E-01    0.128E-01
RMM:   2    -0.116300575174E+04   -0.50430E-03   -0.41175E-03 12679   0.798E-02    0.721E-02
RMM:   3    -0.116300577511E+04   -0.23374E-04   -0.18846E-04  7641   0.275E-02    0.399E-02
RMM:   4    -0.116300578294E+04   -0.78342E-05   -0.55577E-05  7045   0.102E-02    0.205E-02
RMM:   5    -0.116300579833E+04   -0.15383E-04   -0.25745E-05  6817   0.658E-03    0.118E-02
RMM:   6    -0.116300580670E+04   -0.83699E-05   -0.10449E-05  6190   0.471E-03    0.987E-03
RMM:   7    -0.116300581798E+04   -0.11284E-04   -0.92902E-06  5098   0.411E-03    0.914E-03
RMM:   8    -0.116300583677E+04   -0.18786E-04   -0.17867E-05  5394   0.454E-03
   6 F= -.11630058E+04 E0= -.11630047E+04  d E =-.647073E-03  mag=     5.9835
       N       E                     dE             d eps       ncg     rms          rms(c)
DAV:   1    -0.116300568337E+04    0.13461E-03   -0.27464E-01 12496   0.594E-01    0.152E-01
RMM:   2    -0.116300644705E+04   -0.76368E-03   -0.65509E-03 12665   0.100E-01    0.861E-02
RMM:   3    -0.116300647414E+04   -0.27085E-04   -0.31192E-04  8432   0.350E-02    0.487E-02
RMM:   4    -0.116300647716E+04   -0.30266E-05   -0.78663E-05  7100   0.123E-02    0.245E-02
RMM:   5    -0.116300649363E+04   -0.16470E-04   -0.36483E-05  6925   0.810E-03    0.123E-02
RMM:   6    -0.116300650258E+04   -0.89447E-05   -0.15063E-05  6676   0.574E-03    0.103E-02
RMM:   7    -0.116300651440E+04   -0.11820E-04   -0.11860E-05  5732   0.468E-03    0.960E-03
RMM:   8    -0.116300652909E+04   -0.14698E-04   -0.13196E-05  5492   0.425E-03
   7 F= -.11630065E+04 E0= -.11630054E+04  d E =-.692326E-03  mag=     5.9835
       N       E                     dE             d eps       ncg     rms          rms(c)
DAV:   1    -0.116300666438E+04   -0.14998E-03   -0.54094E-02 12432   0.265E-01    0.646E-02
RMM:   2    -0.116300681161E+04   -0.14724E-03   -0.13097E-03 12067   0.449E-02    0.379E-02
RMM:   3    -0.116300681889E+04   -0.72771E-05   -0.62575E-05  6931   0.169E-02    0.230E-02
RMM:   4    -0.116300682715E+04   -0.82660E-05   -0.29146E-05  6739   0.654E-03    0.144E-02
RMM:   5    -0.116300683631E+04   -0.91548E-05   -0.12015E-05  5776   0.403E-03    0.118E-02
RMM:   6    -0.116300684220E+04   -0.58932E-05   -0.53008E-06  4838   0.351E-03    0.853E-03
RMM:   7    -0.116300684924E+04   -0.70335E-05   -0.54445E-06  4096   0.292E-03    0.825E-03
RMM:   8    -0.116300685741E+04   -0.81753E-05   -0.54923E-06  4032   0.292E-03
   8 F= -.11630069E+04 E0= -.11630057E+04  d E =-.328317E-03  mag=     5.9835
       N       E                     dE             d eps       ncg     rms          rms(c)
DAV:   1    -0.116300664558E+04    0.20365E-03   -0.28468E-01 12544   0.605E-01    0.150E-01
RMM:   2    -0.116300742589E+04   -0.78031E-03   -0.68095E-03 12739   0.102E-01    0.844E-02
RMM:   3    -0.116300744861E+04   -0.22722E-04   -0.31451E-04  8389   0.347E-02    0.480E-02
RMM:   4    -0.116300744843E+04    0.18001E-06   -0.74213E-05  7090   0.122E-02    0.241E-02
RMM:   5    -0.116300746161E+04   -0.13175E-04   -0.35106E-05  6894   0.813E-03    0.118E-02
RMM:   6    -0.116300746863E+04   -0.70265E-05   -0.13478E-05  6620   0.565E-03    0.932E-03
RMM:   7    -0.116300747759E+04   -0.89545E-05   -0.10741E-05  5725   0.450E-03    0.864E-03
RMM:   8    -0.116300749071E+04   -0.13120E-04   -0.12912E-05  5445   0.426E-03
   9 F= -.11630075E+04 E0= -.11630064E+04  d E =-.633297E-03  mag=     5.9835
