       N       E                     dE             d eps       ncg     rms          rms(c)
DAV:   1    -0.116187230694E+04   -0.11619E+04   -0.66444E-06  7224   0.465E-03    0.887E-03
RMM:   2    -0.116187230707E+04   -0.12340E-06   -0.28577E-06  4595   0.271E-03    0.124E-02
RMM:   3    -0.116187230714E+04   -0.73487E-07   -0.10867E-06  2815   0.213E-03    0.233E-03
RMM:   4    -0.116187230715E+04   -0.12369E-07   -0.35071E-07  1908   0.192E-03    0.153E-03
RMM:   5    -0.116187230717E+04   -0.11729E-07   -0.14087E-07  1489   0.183E-03    0.184E-03
RMM:   6    -0.116187230716E+04    0.74797E-08   -0.20727E-08  1057   0.180E-03    0.102E-03
RMM:   7    -0.116187230716E+04    0.21246E-08   -0.17437E-08  1053   0.180E-03    0.197E-04
RMM:   8    -0.116187230715E+04    0.13097E-08   -0.31030E-09   910   0.179E-03
   1 F= -.11618723E+04 E0= -.11618713E+04  d E =-.116187E+04  mag=     7.9790
       N       E                     dE             d eps       ncg     rms          rms(c)
DAV:   1    -0.116187232906E+04   -0.21905E-04   -0.93220E-02 12288   0.354E-01    0.959E-02
RMM:   2    -0.116187247007E+04   -0.14101E-03   -0.29296E-03 12176   0.694E-02    0.977E-02
RMM:   3    -0.116187243962E+04    0.30450E-04   -0.97335E-05  7288   0.178E-02    0.658E-02
RMM:   4    -0.116187241054E+04    0.29078E-04   -0.70681E-05  7094   0.105E-02    0.356E-02
RMM:   5    -0.116187240437E+04    0.61769E-05   -0.31444E-05  6732   0.759E-03    0.431E-02
RMM:   6    -0.116187240474E+04   -0.37129E-06   -0.10030E-05  5952   0.484E-03    0.858E-03
RMM:   7    -0.116187240488E+04   -0.14306E-06   -0.31924E-06  4588   0.284E-03    0.927E-03
RMM:   8    -0.116187240503E+04   -0.14469E-06   -0.18503E-06  4323   0.254E-03
   2 F= -.11618724E+04 E0= -.11618714E+04  d E =-.978715E-04  mag=     7.9799
       N       E                     dE             d eps       ncg     rms          rms(c)
DAV:   1    -0.116187264838E+04   -0.24350E-03   -0.16835E-02 12320   0.148E-01    0.473E-02
RMM:   2    -0.116187265002E+04   -0.16383E-05   -0.61258E-04 11185   0.309E-02    0.467E-02
RMM:   3    -0.116187263856E+04    0.11461E-04   -0.23288E-05  6331   0.806E-03    0.311E-02
RMM:   4    -0.116187262731E+04    0.11243E-04   -0.26196E-05  6115   0.606E-03    0.156E-02
RMM:   5    -0.116187262545E+04    0.18603E-05   -0.74821E-06  5369   0.409E-03    0.175E-02
RMM:   6    -0.116187262543E+04    0.22512E-07   -0.21347E-06  4019   0.255E-03    0.554E-03
RMM:   7    -0.116187262538E+04    0.50481E-07   -0.46838E-07  2734   0.204E-03    0.348E-03
RMM:   8    -0.116187262534E+04    0.42404E-07   -0.97505E-08  1768   0.187E-03
   3 F= -.11618726E+04 E0= -.11618716E+04  d E =-.220313E-03  mag=     7.9796
