       N       E                     dE             d eps       ncg     rms          rms(c)
DAV:   1    -0.115959708407E+04   -0.11596E+04   -0.61724E-06  3704   0.552E-03    0.811E-03
RMM:   2    -0.115959708449E+04   -0.41958E-06   -0.39532E-06  2707   0.364E-03    0.145E-02
RMM:   3    -0.115959708467E+04   -0.18089E-06   -0.15891E-06  1557   0.214E-03    0.189E-03
RMM:   4    -0.115959708484E+04   -0.17180E-06   -0.84922E-07  1295   0.215E-03    0.194E-03
RMM:   5    -0.115959708496E+04   -0.11463E-06   -0.35562E-07   992   0.187E-03    0.166E-03
RMM:   6    -0.115959708516E+04   -0.20015E-06   -0.31052E-07   883   0.189E-03    0.188E-03
RMM:   7    -0.115959708523E+04   -0.75161E-07   -0.18560E-07   774   0.184E-03    0.148E-03
RMM:   8    -0.115959708539E+04   -0.15469E-06   -0.24860E-07   751   0.188E-03
   1 F= -.11595971E+04 E0= -.11595971E+04  d E =-.115960E+04  mag=    10.0000
       N       E                     dE             d eps       ncg     rms          rms(c)
DAV:   1    -0.115959688330E+04    0.20194E-03   -0.70697E-01  6400   0.977E-01    0.327E-01
RMM:   2    -0.115959849915E+04   -0.16159E-02   -0.23313E-02  6146   0.199E-01    0.349E-01
RMM:   3    -0.115959836360E+04    0.13555E-03   -0.11890E-03  6002   0.630E-02    0.240E-01
RMM:   4    -0.115959822603E+04    0.13757E-03   -0.66185E-04  5359   0.297E-02    0.106E-01
RMM:   5    -0.115959818581E+04    0.40219E-04   -0.17221E-04  4183   0.194E-02    0.360E-02
RMM:   6    -0.115959818283E+04    0.29848E-05   -0.31395E-05  3556   0.982E-03    0.185E-02
RMM:   7    -0.115959818371E+04   -0.88041E-06   -0.14434E-05  3328   0.526E-03    0.155E-02
RMM:   8    -0.115959818461E+04   -0.90078E-06   -0.84741E-06  3305   0.486E-03
   2 F= -.11595982E+04 E0= -.11595982E+04  d E =-.109922E-02  mag=    10.0000
       N       E                     dE             d eps       ncg     rms          rms(c)
DAV:   1    -0.115959917705E+04   -0.99334E-03   -0.16302E-01  6208   0.457E-01    0.178E-01
RMM:   2    -0.115959949973E+04   -0.32268E-03   -0.59457E-03  6082   0.986E-02    0.185E-01
RMM:   3    -0.115959943929E+04    0.60436E-04   -0.26713E-04  4316   0.304E-02    0.128E-01
RMM:   4    -0.115959938299E+04    0.56298E-04   -0.22835E-04  4207   0.178E-02    0.501E-02
RMM:   5    -0.115959937872E+04    0.42771E-05   -0.56179E-05  3555   0.108E-02    0.247E-02
RMM:   6    -0.115959937811E+04    0.60284E-06   -0.12981E-05  3285   0.587E-03    0.138E-02
RMM:   7    -0.115959937851E+04   -0.39407E-06   -0.64227E-06  2695   0.351E-03    0.882E-03
RMM:   8    -0.115959937891E+04   -0.40581E-06   -0.41837E-06  2715   0.324E-03
   3 F= -.11595994E+04 E0= -.11595994E+04  d E =-.119430E-02  mag=    10.0000
       N       E                     dE             d eps       ncg     rms          rms(c)
DAV:   1    -0.115959974156E+04   -0.36305E-03   -0.15492E-01  6368   0.462E-01    0.102E-01
RMM:   2    -0.115960007871E+04   -0.33715E-03   -0.42078E-03  6271   0.822E-02    0.851E-02
RMM:   3    -0.115960006174E+04    0.16970E-04   -0.17562E-04  3748   0.270E-02    0.543E-02
RMM:   4    -0.115960004943E+04    0.12305E-04   -0.66996E-05  3509   0.107E-02    0.295E-02
RMM:   5    -0.115960004761E+04    0.18260E-05   -0.23842E-05  3399   0.704E-03    0.104E-02
RMM:   6    -0.115960004850E+04   -0.89376E-06   -0.80390E-06  3163   0.454E-03    0.713E-03
RMM:   7    -0.115960004898E+04   -0.47947E-06   -0.38955E-06  2491   0.313E-03    0.408E-03
RMM:   8    -0.115960004939E+04   -0.41288E-06   -0.25262E-06  2168   0.273E-03
   4 F= -.11596000E+04 E0= -.11596000E+04  d E =-.670480E-03  mag=    10.0000
       N       E                     dE             d eps       ncg     rms          rms(c)
DAV:   1    -0.115960034735E+04   -0.29837E-03   -0.44857E-02  6112   0.245E-01    0.547E-02
RMM:   2    -0.115960043525E+04   -0.87893E-04   -0.12482E-03  6068   0.448E-02    0.454E-02
RMM:   3    -0.115960042866E+04    0.65899E-05   -0.53797E-05  3405   0.155E-02    0.296E-02
RMM:   4    -0.115960042321E+04    0.54422E-05   -0.25645E-05  3302   0.634E-03    0.180E-02
RMM:   5    -0.115960042230E+04    0.91814E-06   -0.75161E-06  2900   0.422E-03    0.925E-03
RMM:   6    -0.115960042260E+04   -0.30348E-06   -0.29910E-06  2289   0.280E-03    0.516E-03
RMM:   7    -0.115960042271E+04   -0.10885E-06   -0.10880E-06  1486   0.245E-03    0.264E-03
RMM:   8    -0.115960042278E+04   -0.72352E-07   -0.40990E-07  1118   0.202E-03
   5 F= -.11596004E+04 E0= -.11596004E+04  d E =-.373389E-03  mag=    10.0000
       N       E                     dE             d eps       ncg     rms          rms(c)
DAV:   1    -0.115960062360E+04   -0.20089E-03   -0.23959E-01  6368   0.568E-01    0.103E-01
RMM:   2    -0.115960115542E+04   -0.53182E-03   -0.59489E-03  6273   0.950E-02    0.660E-02
RMM:   3    -0.115960114209E+04    0.13331E-04   -0.25112E-04  3962   0.321E-02    0.428E-02
RMM:   4    -0.115960113072E+04    0.11372E-04   -0.78619E-05  3516   0.115E-02    0.220E-02
RMM:   5    -0.115960113249E+04   -0.17717E-05   -0.22569E-05  3421   0.711E-03    0.624E-03
RMM:   6    -0.115960113375E+04   -0.12544E-05   -0.96076E-06  3222   0.481E-03    0.479E-03
RMM:   7    -0.115960113446E+04   -0.71837E-06   -0.54008E-06  2733   0.355E-03    0.328E-03
RMM:   8    -0.115960113505E+04   -0.58778E-06   -0.33713E-06  2338   0.310E-03
   6 F= -.11596011E+04 E0= -.11596011E+04  d E =-.712270E-03  mag=    10.0000
       N       E                     dE             d eps       ncg     rms          rms(c)
DAV:   1    -0.115960127788E+04   -0.14342E-03   -0.21664E-01  6352   0.538E-01    0.960E-02
RMM:   2    -0.115960176505E+04   -0.48716E-03   -0.53857E-03  6274   0.901E-02    0.611E-02
RMM:   3    -0.115960175222E+04    0.12824E-04   -0.22002E-04  3867   0.295E-02    0.398E-02
RMM:   4    -0.115960174204E+04    0.10182E-04   -0.72681E-05  3516   0.110E-02    0.204E-02
RMM:   5    -0.115960174378E+04   -0.17388E-05   -0.20185E-05  3417   0.679E-03    0.881E-03
RMM:   6    -0.115960174502E+04   -0.12371E-05   -0.93430E-06  3209   0.462E-03    0.549E-03
RMM:   7    -0.115960174571E+04   -0.69047E-06   -0.50586E-06  2590   0.356E-03    0.392E-03
RMM:   8    -0.115960174626E+04   -0.54893E-06   -0.32570E-06  2257   0.299E-03
   7 F= -.11596017E+04 E0= -.11596017E+04  d E =-.611204E-03  mag=    10.0000
       N       E                     dE             d eps       ncg     rms          rms(c)
DAV:   1    -0.115960175749E+04   -0.11787E-04   -0.24628E-01  6312   0.571E-01    0.101E-01
RMM:   2    -0.115960231735E+04   -0.55985E-03   -0.61065E-03  6319   0.959E-02    0.636E-02
RMM:   3    -0.115960230548E+04    0.11870E-04   -0.25666E-04  3980   0.317E-02    0.416E-02
RMM:   4    -0.115960229472E+04    0.10760E-04   -0.74898E-05  3528   0.115E-02    0.220E-02
RMM:   5    -0.115960229662E+04   -0.19006E-05   -0.22921E-05  3435   0.727E-03    0.105E-02
RMM:   6    -0.115960229800E+04   -0.13857E-05   -0.10179E-05  3242   0.494E-03    0.561E-03
RMM:   7    -0.115960229882E+04   -0.81728E-06   -0.56578E-06  2684   0.370E-03    0.425E-03
RMM:   8    -0.115960229941E+04   -0.58752E-06   -0.35912E-06  2340   0.317E-03
   8 F= -.11596023E+04 E0= -.11596023E+04  d E =-.553152E-03  mag=    10.0000
       N       E                     dE             d eps       ncg     rms          rms(c)
DAV:   1    -0.115960243488E+04   -0.13606E-03   -0.68708E-02  6160   0.299E-01    0.535E-02
RMM:   2    -0.115960258998E+04   -0.15510E-03   -0.17068E-03  6064   0.507E-02    0.359E-02
RMM:   3    -0.115960258629E+04    0.36856E-05   -0.71116E-05  3485   0.176E-02    0.235E-02
RMM:   4    -0.115960258427E+04    0.20223E-05   -0.27335E-05  3379   0.649E-03    0.138E-02
RMM:   5    -0.115960258466E+04   -0.39495E-06   -0.76773E-06  2996   0.417E-03    0.562E-03
RMM:   6    -0.115960258521E+04   -0.54711E-06   -0.34340E-06  2268   0.289E-03    0.349E-03
RMM:   7    -0.115960258549E+04   -0.28221E-06   -0.15841E-06  1653   0.252E-03    0.209E-03
RMM:   8    -0.115960258577E+04   -0.27734E-06   -0.96510E-07  1365   0.219E-03
   9 F= -.11596026E+04 E0= -.11596026E+04  d E =-.286363E-03  mag=    10.0000
       N       E                     dE             d eps       ncg     rms          rms(c)
DAV:   1    -0.115960270879E+04   -0.12330E-03   -0.49165E-02  6128   0.250E-01    0.441E-02
RMM:   2    -0.115960282015E+04   -0.11136E-03   -0.12008E-03  5901   0.426E-02    0.277E-02
RMM:   3    -0.115960281851E+04    0.16343E-05   -0.51999E-05  3410   0.151E-02    0.179E-02
RMM:   4    -0.115960281732E+04    0.11876E-05   -0.19251E-05  3241   0.561E-03    0.968E-03
RMM:   5    -0.115960281777E+04   -0.44268E-06   -0.49315E-06  2607   0.357E-03    0.336E-03
RMM:   6    -0.115960281813E+04   -0.36485E-06   -0.21857E-06  1731   0.251E-03    0.208E-03
RMM:   7    -0.115960281831E+04   -0.18188E-06   -0.91874E-07  1290   0.231E-03    0.131E-03
RMM:   8    -0.115960281851E+04   -0.19326E-06   -0.55784E-07  1072   0.207E-03
  10 F= -.11596028E+04 E0= -.11596028E+04  d E =-.232737E-03  mag=    10.0000
       N       E                     dE             d eps       ncg     rms          rms(c)
DAV:   1    -0.115960292428E+04   -0.10597E-03   -0.59170E-02  6080   0.274E-01    0.490E-02
RMM:   2    -0.115960305997E+04   -0.13569E-03   -0.14428E-03  5995   0.466E-02    0.321E-02
RMM:   3    -0.115960305776E+04    0.22097E-05   -0.60574E-05  3423   0.162E-02    0.205E-02
RMM:   4    -0.115960305610E+04    0.16583E-05   -0.21800E-05  3252   0.597E-03    0.119E-02
RMM:   5    -0.115960305637E+04   -0.26525E-06   -0.64643E-06  2805   0.384E-03    0.325E-03
RMM:   6    -0.115960305676E+04   -0.39066E-06   -0.23953E-06  1840   0.260E-03    0.200E-03
RMM:   7    -0.115960305695E+04   -0.19286E-06   -0.10044E-06  1335   0.230E-03    0.136E-03
RMM:   8    -0.115960305713E+04   -0.18546E-06   -0.57573E-07  1066   0.209E-03
  11 F= -.11596031E+04 E0= -.11596031E+04  d E =-.238627E-03  mag=    10.0000
       N       E                     dE             d eps       ncg     rms          rms(c)
DAV:   1    -0.115960314254E+04   -0.85589E-04   -0.71514E-02  6112   0.301E-01    0.536E-02
RMM:   2    -0.115960330723E+04   -0.16469E-03   -0.17416E-03  6104   0.510E-02    0.337E-02
RMM:   3    -0.115960330444E+04    0.27850E-05   -0.71115E-05  3460   0.174E-02    0.216E-02
RMM:   4    -0.115960330237E+04    0.20715E-05   -0.24568E-05  3300   0.635E-03    0.119E-02
RMM:   5    -0.115960330273E+04   -0.36592E-06   -0.73242E-06  2856   0.408E-03    0.382E-03
RMM:   6    -0.115960330319E+04   -0.45678E-06   -0.29763E-06  2006   0.276E-03    0.235E-03
RMM:   7    -0.115960330340E+04   -0.21253E-06   -0.12735E-06  1437   0.240E-03    0.156E-03
RMM:   8    -0.115960330363E+04   -0.22238E-06   -0.74891E-07  1138   0.212E-03
  12 F= -.11596033E+04 E0= -.11596033E+04  d E =-.246492E-03  mag=    10.0000
       N       E                     dE             d eps       ncg     rms          rms(c)
DAV:   1    -0.115960337850E+04   -0.75098E-04   -0.69516E-02  6112   0.297E-01    0.534E-02
RMM:   2    -0.115960354143E+04   -0.16293E-03   -0.17082E-03  6073   0.504E-02    0.347E-02
RMM:   3    -0.115960353912E+04    0.23076E-05   -0.69996E-05  3453   0.171E-02    0.219E-02
RMM:   4    -0.115960353728E+04    0.18484E-05   -0.23900E-05  3270   0.631E-03    0.126E-02
RMM:   5    -0.115960353762E+04   -0.33996E-06   -0.75633E-06  2845   0.409E-03    0.370E-03
RMM:   6    -0.115960353808E+04   -0.46610E-06   -0.29384E-06  1968   0.276E-03    0.219E-03
RMM:   7    -0.115960353831E+04   -0.22547E-06   -0.12570E-06  1384   0.239E-03    0.147E-03
RMM:   8    -0.115960353853E+04   -0.22230E-06   -0.74320E-07  1100   0.213E-03
  13 F= -.11596035E+04 E0= -.11596035E+04  d E =-.234903E-03  mag=    10.0000
       N       E                     dE             d eps       ncg     rms          rms(c)
DAV:   1    -0.115960353893E+04   -0.62396E-06   -0.12835E-01  6128   0.402E-01    0.704E-02
RMM:   2    -0.115960383673E+04   -0.29780E-03   -0.31309E-03  6267   0.675E-02    0.438E-02
RMM:   3    -0.115960383067E+04    0.60600E-05   -0.12329E-04  3628   0.218E-02    0.281E-02
RMM:   4    -0.115960382585E+04    0.48161E-05   -0.38090E-05  3428   0.809E-03    0.146E-02
RMM:   5    -0.115960382678E+04   -0.92984E-06   -0.11554E-05  3136   0.503E-03    0.475E-03
RMM:   6    -0.115960382747E+04   -0.69365E-06   -0.46377E-06  2541   0.337E-03    0.301E-03
RMM:   7    -0.115960382785E+04   -0.37461E-06   -0.22840E-06  1865   0.268E-03    0.217E-03
RMM:   8    -0.115960382817E+04   -0.32078E-06   -0.13270E-06  1435   0.233E-03
  14 F= -.11596038E+04 E0= -.11596038E+04  d E =-.289641E-03  mag=    10.0000
       N       E                     dE             d eps       ncg     rms          rms(c)
DAV:   1    -0.115960384983E+04   -0.21983E-04   -0.90207E-02  6096   0.337E-01    0.601E-02
RMM:   2    -0.115960405958E+04   -0.20975E-03   -0.22000E-03  6140   0.568E-02    0.374E-02
RMM:   3    -0.115960405584E+04    0.37420E-05   -0.88802E-05  3520   0.191E-02    0.238E-02
RMM:   4    -0.115960405291E+04    0.29271E-05   -0.30123E-05  3358   0.700E-03    0.130E-02
RMM:   5    -0.115960405355E+04   -0.63509E-06   -0.89333E-06  2998   0.447E-03    0.407E-03
RMM:   6    -0.115960405414E+04   -0.59670E-06   -0.36950E-06  2235   0.295E-03    0.255E-03
RMM:   7    -0.115960405446E+04   -0.31271E-06   -0.16558E-06  1597   0.253E-03    0.179E-03
RMM:   8    -0.115960405475E+04   -0.29674E-06   -0.10217E-06  1266   0.219E-03
  15 F= -.11596041E+04 E0= -.11596041E+04  d E =-.226583E-03  mag=    10.0000
       N       E                     dE             d eps       ncg     rms          rms(c)
DAV:   1    -0.115960398590E+04    0.68561E-04   -0.15741E-01  6144   0.444E-01    0.778E-02
RMM:   2    -0.115960434865E+04   -0.36276E-03   -0.38128E-03  6296   0.742E-02    0.473E-02
RMM:   3    -0.115960434101E+04    0.76418E-05   -0.15167E-04  3711   0.237E-02    0.303E-02
RMM:   4    -0.115960433460E+04    0.64158E-05   -0.44344E-05  3456   0.892E-03    0.156E-02
RMM:   5    -0.115960433582E+04   -0.12257E-05   -0.14306E-05  3228   0.554E-03    0.470E-03
RMM:   6    -0.115960433669E+04   -0.86741E-06   -0.56576E-06  2681   0.369E-03    0.306E-03
RMM:   7    -0.115960433719E+04   -0.49903E-06   -0.28809E-06  2015   0.281E-03    0.210E-03
RMM:   8    -0.115960433764E+04   -0.45578E-06   -0.17039E-06  1609   0.251E-03
  16 F= -.11596043E+04 E0= -.11596043E+04  d E =-.282892E-03  mag=    10.0000
