       N       E                     dE             d eps       ncg     rms          rms(c)
DAV:   1    -0.116126871841E+04   -0.11613E+04   -0.11894E-05  3728   0.903E-03    0.865E-03
RMM:   2    -0.116126872471E+04   -0.62959E-05   -0.14279E-05  3075   0.538E-03    0.102E-02
RMM:   3    -0.116126872693E+04   -0.22147E-05   -0.54916E-06  2222   0.276E-03    0.668E-03
RMM:   4    -0.116126872697E+04   -0.46624E-07   -0.20687E-06  1910   0.300E-03    0.656E-03
RMM:   5    -0.116126872758E+04   -0.60952E-06   -0.11067E-06  1341   0.214E-03    0.717E-03
RMM:   6    -0.116126872794E+04   -0.36263E-06   -0.47219E-07  1085   0.210E-03    0.728E-03
RMM:   7    -0.116126873031E+04   -0.23637E-05   -0.15228E-06  1554   0.236E-03    0.125E-02
RMM:   8    -0.116126873439E+04   -0.40838E-05   -0.26659E-06  1766   0.258E-03
   1 F= -.11612687E+04 E0= -.11612687E+04  d E =-.116127E+04  mag=     8.0000
       N       E                     dE             d eps       ncg     rms          rms(c)
DAV:   1    -0.116126901911E+04   -0.28881E-03   -0.24622E-01  6360   0.581E-01    0.178E-01
RMM:   2    -0.116126946257E+04   -0.44346E-03   -0.76398E-03  6188   0.114E-01    0.165E-01
RMM:   3    -0.116126940736E+04    0.55217E-04   -0.38584E-04  4951   0.394E-02    0.106E-01
RMM:   4    -0.116126934052E+04    0.66831E-04   -0.25622E-04  4483   0.185E-02    0.551E-02
RMM:   5    -0.116126932926E+04    0.11264E-04   -0.51231E-05  3613   0.115E-02    0.198E-02
RMM:   6    -0.116126933158E+04   -0.23152E-05   -0.17654E-05  3408   0.565E-03    0.147E-02
RMM:   7    -0.116126933402E+04   -0.24461E-05   -0.73036E-06  3129   0.424E-03    0.987E-03
RMM:   8    -0.116126933765E+04   -0.36292E-05   -0.62155E-06  3027   0.353E-03
   2 F= -.11612693E+04 E0= -.11612693E+04  d E =-.603260E-03  mag=     8.0000
       N       E                     dE             d eps       ncg     rms          rms(c)
DAV:   1    -0.116126984514E+04   -0.51112E-03   -0.57488E-02  6160   0.276E-01    0.832E-02
RMM:   2    -0.116126990305E+04   -0.57910E-04   -0.19988E-03  6058   0.583E-02    0.921E-02
RMM:   3    -0.116126987751E+04    0.25540E-04   -0.88825E-05  3581   0.195E-02    0.648E-02
RMM:   4    -0.116126985266E+04    0.24845E-04   -0.73423E-05  3549   0.103E-02    0.373E-02
RMM:   5    -0.116126984803E+04    0.46342E-05   -0.27227E-05  3331   0.695E-03    0.184E-02
RMM:   6    -0.116126984907E+04   -0.10397E-05   -0.77420E-06  2895   0.450E-03    0.121E-02
RMM:   7    -0.116126985006E+04   -0.99177E-06   -0.35795E-06  2252   0.287E-03    0.866E-03
RMM:   8    -0.116126985188E+04   -0.18163E-05   -0.29257E-06  2104   0.276E-03
   3 F= -.11612699E+04 E0= -.11612699E+04  d E =-.514225E-03  mag=     8.0000
