       N       E                     dE             d eps       ncg     rms          rms(c)
DAV:   1     0.120171415141E+05    0.12017E+05   -0.42321E+05  6168   0.132E+03
DAV:   2     0.698540822194E+03   -0.11319E+05   -0.10118E+05  6144   0.378E+02
DAV:   3    -0.134936998388E+04   -0.20479E+04   -0.19713E+04  6608   0.167E+02
DAV:   4    -0.148942159109E+04   -0.14005E+03   -0.13764E+03  8104   0.459E+01
DAV:   5    -0.149853422332E+04   -0.91126E+01   -0.90672E+01 11096   0.108E+01    0.189E+02
RMM:   6    -0.116001695260E+04    0.33852E+03   -0.16174E+03  6275   0.355E+01    0.126E+02
RMM:   7    -0.114314736499E+04    0.16870E+02   -0.66517E+01  6402   0.121E+01    0.742E+01
RMM:   8    -0.114657377062E+04   -0.34264E+01   -0.23546E+01  7014   0.569E+00    0.418E+01
RMM:   9    -0.115052524374E+04   -0.39515E+01   -0.80630E+00  6756   0.325E+00    0.315E+01
RMM:  10    -0.115157183935E+04   -0.10466E+01   -0.29235E+00  7064   0.196E+00    0.107E+01
RMM:  11    -0.115289000074E+04   -0.13182E+01   -0.20705E+00  6735   0.156E+00    0.942E+00
RMM:  12    -0.115386895807E+04   -0.97896E+00   -0.85469E-01  7540   0.862E-01    0.596E+00
RMM:  13    -0.115448965602E+04   -0.62070E+00   -0.53401E-01  6998   0.746E-01    0.841E+00
RMM:  14    -0.115477988303E+04   -0.29023E+00   -0.27107E-01  6928   0.531E-01    0.214E+00
RMM:  15    -0.115488194197E+04   -0.10206E+00   -0.10950E-01  7200   0.335E-01    0.272E+00
RMM:  16    -0.115493711261E+04   -0.55171E-01   -0.54075E-02  7166   0.230E-01    0.264E+00
RMM:  17    -0.115497006366E+04   -0.32951E-01   -0.36938E-02  7167   0.189E-01    0.915E-01
RMM:  18    -0.115499539519E+04   -0.25332E-01   -0.32822E-02  6835   0.191E-01    0.156E+00
RMM:  19    -0.115500391321E+04   -0.85180E-02   -0.11212E-02  7182   0.973E-02    0.120E+00
RMM:  20    -0.115501399103E+04   -0.10078E-01   -0.79751E-03  6249   0.860E-02    0.838E-01
RMM:  21    -0.115503110175E+04   -0.17111E-01   -0.17716E-02  5898   0.129E-01    0.604E-01
RMM:  22    -0.115504908749E+04   -0.17986E-01   -0.25555E-02  5862   0.145E-01    0.498E-01
RMM:  23    -0.115506093460E+04   -0.11847E-01   -0.16478E-02  5863   0.104E-01    0.416E-01
RMM:  24    -0.115507737412E+04   -0.16440E-01   -0.21561E-02  5674   0.129E-01    0.339E-01
RMM:  25    -0.115509712463E+04   -0.19751E-01   -0.36608E-02  5732   0.173E-01    0.267E-01
RMM:  26    -0.115511806864E+04   -0.20944E-01   -0.59386E-02  5849   0.213E-01    0.193E-01
RMM:  27    -0.115512684796E+04   -0.87793E-02   -0.23635E-02  5838   0.122E-01    0.231E-01
RMM:  28    -0.115513698176E+04   -0.10134E-01   -0.58024E-02  5794   0.225E-01    0.256E-01
RMM:  29    -0.115514246016E+04   -0.54784E-02   -0.94440E-03  5629   0.102E-01    0.407E-01
RMM:  30    -0.115514910665E+04   -0.66465E-02   -0.18435E-02  5567   0.111E-01    0.393E-01
RMM:  31    -0.115515150902E+04   -0.24024E-02   -0.77056E-03  5318   0.629E-02    0.331E-01
RMM:  32    -0.115515422030E+04   -0.27113E-02   -0.11642E-02  5346   0.901E-02    0.258E-01
RMM:  33    -0.115515548347E+04   -0.12632E-02   -0.77988E-03  5230   0.685E-02    0.199E-01
RMM:  34    -0.115515602681E+04   -0.54334E-03   -0.23144E-03  4890   0.359E-02    0.138E-01
RMM:  35    -0.115515625307E+04   -0.22626E-03   -0.11843E-03  4448   0.264E-02    0.104E-01
RMM:  36    -0.115515635511E+04   -0.10204E-03   -0.71208E-04  4281   0.208E-02    0.435E-02
RMM:  37    -0.115515639700E+04   -0.41883E-04   -0.44363E-04  3981   0.163E-02
   1 F= -.11551564E+04 E0= -.11551550E+04  d E =-.115516E+04  mag=     7.9953
       N       E                     dE             d eps       ncg     rms          rms(c)
DAV:   1    -0.107721806619E+04    0.77938E+02   -0.47755E+03  6688   0.538E+01    0.657E+01
RMM:   2    -0.119359401706E+04   -0.11638E+03   -0.81923E+02  8090   0.286E+01    0.167E+02
RMM:   3    -0.116258210833E+04    0.31012E+02   -0.93098E+01  7294   0.926E+00    0.104E+02
RMM:   4    -0.113260267334E+04    0.29979E+02   -0.35304E+01  6587   0.607E+00    0.339E+01
RMM:   5    -0.114245715213E+04   -0.98545E+01   -0.20303E+01  6552   0.336E+00    0.317E+01
RMM:   6    -0.113946489828E+04    0.29923E+01   -0.18887E+01  6261   0.392E+00    0.271E+01
RMM:   7    -0.113819595227E+04    0.12689E+01   -0.37098E+00  7050   0.170E+00    0.122E+01
RMM:   8    -0.113967540985E+04   -0.14795E+01   -0.16141E+00  6755   0.117E+00    0.795E+00
RMM:   9    -0.114029779530E+04   -0.62239E+00   -0.94931E-01  6905   0.844E-01    0.476E+00
RMM:  10    -0.114041426431E+04   -0.11647E+00   -0.38997E-01  6940   0.560E-01    0.403E+00
RMM:  11    -0.114047244191E+04   -0.58178E-01   -0.17300E-01  6941   0.389E-01    0.339E+00
RMM:  12    -0.114049659493E+04   -0.24153E-01   -0.83277E-02  7358   0.258E-01    0.267E+00
RMM:  13    -0.114050286887E+04   -0.62739E-02   -0.27998E-02  7567   0.128E-01    0.202E+00
RMM:  14    -0.114050603938E+04   -0.31705E-02   -0.10393E-02  6824   0.836E-02    0.176E+00
RMM:  15    -0.114050953384E+04   -0.34945E-02   -0.72587E-03  6432   0.680E-02    0.148E+00
RMM:  16    -0.114051040863E+04   -0.87479E-03   -0.41515E-03  6007   0.452E-02    0.127E+00
RMM:  17    -0.114051199347E+04   -0.15848E-02   -0.35282E-03  5835   0.463E-02    0.979E-01
RMM:  18    -0.114051373449E+04   -0.17410E-02   -0.42067E-03  5688   0.522E-02    0.740E-01
RMM:  19    -0.114051539444E+04   -0.16599E-02   -0.36203E-03  5591   0.467E-02    0.544E-01
RMM:  20    -0.114051725644E+04   -0.18620E-02   -0.40963E-03  5529   0.531E-02    0.325E-01
RMM:  21    -0.114051957056E+04   -0.23141E-02   -0.59766E-03  5654   0.647E-02    0.168E-01
RMM:  22    -0.114052215333E+04   -0.25828E-02   -0.88480E-03  5621   0.801E-02    0.129E-01
RMM:  23    -0.114052346181E+04   -0.13085E-02   -0.46863E-03  5483   0.514E-02    0.167E-01
RMM:  24    -0.114052403969E+04   -0.57788E-03   -0.15967E-03  4793   0.290E-02    0.167E-01
RMM:  25    -0.114052470241E+04   -0.66272E-03   -0.17030E-03  4819   0.320E-02    0.192E-01
RMM:  26    -0.114052551258E+04   -0.81017E-03   -0.39643E-03  5033   0.530E-02    0.218E-01
RMM:  27    -0.114052577502E+04   -0.26245E-03   -0.12105E-03  4632   0.247E-02    0.135E-01
RMM:  28    -0.114052602380E+04   -0.24878E-03   -0.12877E-03  4603   0.282E-02    0.696E-02
RMM:  29    -0.114052618180E+04   -0.15800E-03   -0.99952E-04  4431   0.232E-02    0.422E-02
RMM:  30    -0.114052625531E+04   -0.73514E-04   -0.48112E-04  4025   0.160E-02
   2 F= -.11405263E+04 E0= -.11405263E+04  d E =0.146301E+02  mag=     4.0010
       N       E                     dE             d eps       ncg     rms          rms(c)
DAV:   1    -0.110358086367E+04    0.36945E+02   -0.26830E+03  7288   0.264E+01    0.632E+01
RMM:   2    -0.115803601255E+04   -0.54455E+02   -0.51129E+02  7401   0.151E+01    0.565E+01
RMM:   3    -0.116727985461E+04   -0.92438E+01   -0.37262E+01  7187   0.498E+00    0.790E+01
RMM:   4    -0.114665754199E+04    0.20622E+02   -0.53339E+00  7039   0.203E+00    0.597E+01
RMM:   5    -0.114688874969E+04   -0.23121E+00   -0.74075E-01  9397   0.548E-01    0.591E+01
RMM:   6    -0.115429729510E+04   -0.74085E+01   -0.15516E+01  6884   0.339E+00    0.473E+01
RMM:   7    -0.115334426902E+04    0.95303E+00   -0.11850E+01  6956   0.393E+00    0.344E+01
RMM:   8    -0.114761708453E+04    0.57272E+01   -0.48929E+00  7161   0.204E+00    0.206E+01
RMM:   9    -0.114788235873E+04   -0.26527E+00   -0.14979E+00  6794   0.127E+00    0.151E+01
RMM:  10    -0.114779422855E+04    0.88130E-01   -0.11932E+00  6698   0.113E+00    0.155E+01
RMM:  11    -0.114662410119E+04    0.11701E+01   -0.52366E-01  6679   0.726E-01    0.134E+01
RMM:  12    -0.114629436515E+04    0.32974E+00   -0.34943E-01  6537   0.516E-01    0.111E+01
RMM:  13    -0.114558268635E+04    0.71168E+00   -0.37667E-01  6802   0.505E-01    0.914E+00
RMM:  14    -0.114559218670E+04   -0.95003E-02   -0.10608E-01  6734   0.283E-01    0.757E+00
RMM:  15    -0.114587190359E+04   -0.27972E+00   -0.64151E-02  6297   0.227E-01    0.714E+00
RMM:  16    -0.114600022264E+04   -0.12832E+00   -0.31474E-02  6271   0.163E-01    0.701E+00
RMM:  17    -0.114607572768E+04   -0.75505E-01   -0.16983E-01  6206   0.355E-01    0.614E+00
RMM:  18    -0.114609841578E+04   -0.22688E-01   -0.15113E-01  6364   0.348E-01    0.562E+00
RMM:  19    -0.114616288361E+04   -0.64468E-01   -0.81385E-02  6408   0.245E-01    0.534E+00
RMM:  20    -0.114627883790E+04   -0.11595E+00   -0.15343E-01  6194   0.430E-01    0.483E+00
RMM:  21    -0.114630596158E+04   -0.27124E-01   -0.27250E-01  6177   0.655E-01    0.491E+00
RMM:  22    -0.114502671911E+04    0.12792E+01   -0.13874E+00  6276   0.135E+00    0.745E+00
RMM:  23    -0.114483694872E+04    0.18977E+00   -0.17993E-01  6592   0.437E-01    0.740E+00
RMM:  24    -0.114507469796E+04   -0.23775E+00   -0.19044E-01  6356   0.513E-01    0.724E+00
RMM:  25    -0.114594001822E+04   -0.86532E+00   -0.91239E-01  6393   0.971E-01    0.667E+00
RMM:  26    -0.114645318378E+04   -0.51317E+00   -0.61585E-01  6180   0.821E-01    0.487E+00
RMM:  27    -0.114643259400E+04    0.20590E-01   -0.17414E-01  6369   0.508E-01    0.377E+00
RMM:  28    -0.114640663307E+04    0.25961E-01   -0.93643E-02  6284   0.342E-01    0.280E+00
RMM:  29    -0.114635484485E+04    0.51788E-01   -0.10490E-01  6306   0.338E-01    0.210E+00
RMM:  30    -0.114629919592E+04    0.55649E-01   -0.79195E-02  6605   0.280E-01    0.162E+00
RMM:  31    -0.114629526754E+04    0.39284E-02   -0.25214E-02  6545   0.154E-01    0.117E+00
RMM:  32    -0.114629904337E+04   -0.37758E-02   -0.41881E-03  6909   0.523E-02    0.107E+00
RMM:  33    -0.114630062203E+04   -0.15787E-02   -0.11586E-03  6118   0.288E-02    0.102E+00
RMM:  34    -0.114631336801E+04   -0.12746E-01   -0.88001E-03  5817   0.113E-01    0.638E-01
RMM:  35    -0.114632050947E+04   -0.71415E-02   -0.51624E-03  5735   0.733E-02    0.522E-01
RMM:  36    -0.114632744589E+04   -0.69364E-02   -0.52327E-03  5666   0.771E-02    0.359E-01
RMM:  37    -0.114633183884E+04   -0.43930E-02   -0.60475E-03  5644   0.787E-02    0.276E-01
RMM:  38    -0.114633504428E+04   -0.32054E-02   -0.65869E-03  5852   0.817E-02    0.183E-01
RMM:  39    -0.114633655105E+04   -0.15068E-02   -0.33271E-03  5516   0.569E-02    0.150E-01
RMM:  40    -0.114633765364E+04   -0.11026E-02   -0.21595E-03  5344   0.460E-02
   3 F= -.11463377E+04 E0= -.11463377E+04  d E =-.581140E+01  mag=     7.9828
       N       E                     dE             d eps       ncg     rms          rms(c)
DAV:   1    -0.113656457022E+04    0.97720E+01   -0.13369E+03  6192   0.292E+01    0.202E+01
RMM:   2    -0.115258505872E+04   -0.16020E+02   -0.16765E+02  6414   0.111E+01    0.151E+01
RMM:   3    -0.114985471336E+04    0.27303E+01   -0.71053E+00  6259   0.420E+00    0.110E+01
RMM:   4    -0.114923346893E+04    0.62124E+00   -0.32548E+00  7242   0.107E+00    0.711E+00
RMM:   5    -0.114916150364E+04    0.71965E-01   -0.57568E-01  7006   0.555E-01    0.316E+00
RMM:   6    -0.114913201895E+04    0.29485E-01   -0.64809E-01  6983   0.539E-01    0.180E+00
RMM:   7    -0.114910066948E+04    0.31349E-01   -0.62027E-02  8531   0.182E-01    0.751E-01
RMM:   8    -0.114910409151E+04   -0.34220E-02   -0.38343E-02  8650   0.101E-01    0.498E-01
RMM:   9    -0.114910275767E+04    0.13338E-02   -0.97895E-03  8266   0.624E-02    0.168E-01
RMM:  10    -0.114910306937E+04   -0.31170E-03   -0.18974E-03  7155   0.306E-02    0.681E-02
RMM:  11    -0.114910329269E+04   -0.22332E-03   -0.89702E-04  5489   0.210E-02    0.503E-02
RMM:  12    -0.114910355284E+04   -0.26016E-03   -0.57165E-04  5062   0.185E-02    0.461E-02
RMM:  13    -0.114910377098E+04   -0.21814E-03   -0.36311E-04  4612   0.160E-02    0.407E-02
RMM:  14    -0.114910394942E+04   -0.17843E-03   -0.23694E-04  4401   0.141E-02    0.407E-02
RMM:  15    -0.114910422027E+04   -0.27085E-03   -0.26619E-04  4420   0.150E-02    0.369E-02
RMM:  16    -0.114910454543E+04   -0.32516E-03   -0.31074E-04  4347   0.153E-02    0.374E-02
RMM:  17    -0.114910496185E+04   -0.41642E-03   -0.46813E-04  4365   0.174E-02    0.352E-02
RMM:  18    -0.114910555357E+04   -0.59173E-03   -0.93328E-04  4454   0.236E-02    0.351E-02
RMM:  19    -0.114910618806E+04   -0.63449E-03   -0.12662E-03  4466   0.264E-02    0.342E-02
RMM:  20    -0.114910666188E+04   -0.47382E-03   -0.82649E-04  4276   0.201E-02    0.321E-02
RMM:  21    -0.114910718874E+04   -0.52686E-03   -0.10243E-03  4402   0.237E-02    0.318E-02
RMM:  22    -0.114910815804E+04   -0.96930E-03   -0.68369E-03  4995   0.657E-02    0.426E-02
RMM:  23    -0.114910856754E+04   -0.40950E-03   -0.60834E-04  4254   0.200E-02    0.250E-02
RMM:  24    -0.114910900720E+04   -0.43966E-03   -0.11500E-02  5223   0.884E-02    0.631E-02
RMM:  25    -0.114910980308E+04   -0.79588E-03   -0.75105E-04  4353   0.266E-02    0.223E-02
RMM:  26    -0.114910975008E+04    0.52991E-04   -0.72202E-03  4990   0.688E-02    0.674E-02
RMM:  27    -0.114911041038E+04   -0.66030E-03   -0.56499E-04  4236   0.194E-02    0.386E-02
RMM:  28    -0.114911034159E+04    0.68798E-04   -0.22446E-03  4432   0.370E-02    0.599E-02
RMM:  29    -0.114911081525E+04   -0.47366E-03   -0.25118E-04  3841   0.159E-02    0.246E-02
RMM:  30    -0.114911084476E+04   -0.29517E-04   -0.17140E-04  3466   0.102E-02
   4 F= -.11491108E+04 E0= -.11491108E+04  d E =-.277319E+01  mag=     8.0001
       N       E                     dE             d eps       ncg     rms          rms(c)
DAV:   1    -0.114965765915E+04   -0.54684E+00   -0.85251E+02  6208   0.189E+01    0.179E+01
RMM:   2    -0.115426736783E+04   -0.46097E+01   -0.64141E+01  6157   0.622E+00    0.176E+01
RMM:   3    -0.115396332224E+04    0.30405E+00   -0.33681E+00  6473   0.176E+00    0.144E+01
RMM:   4    -0.115435289919E+04   -0.38958E+00   -0.48136E+00  6350   0.151E+00    0.923E+00
RMM:   5    -0.115380327754E+04    0.54962E+00   -0.75351E-01  6417   0.962E-01    0.473E+00
RMM:   6    -0.115357084321E+04    0.23243E+00   -0.69326E-01  6678   0.678E-01    0.195E+00
RMM:   7    -0.115353873514E+04    0.32108E-01   -0.12023E-01  6827   0.366E-01    0.771E-01
RMM:   8    -0.115353826426E+04    0.47089E-03   -0.31635E-02  7734   0.135E-01    0.389E-01
RMM:   9    -0.115353811862E+04    0.14564E-03   -0.33589E-03  7037   0.541E-02    0.182E-01
RMM:  10    -0.115353832053E+04   -0.20191E-03   -0.89494E-04  6295   0.302E-02    0.697E-02
RMM:  11    -0.115353847990E+04   -0.15937E-03   -0.53409E-04  5525   0.220E-02    0.575E-02
RMM:  12    -0.115353861178E+04   -0.13189E-03   -0.17197E-04  4364   0.156E-02    0.473E-02
RMM:  13    -0.115353879544E+04   -0.18366E-03   -0.19267E-04  4375   0.148E-02    0.338E-02
RMM:  14    -0.115353896274E+04   -0.16730E-03   -0.15815E-04  4215   0.134E-02    0.315E-02
RMM:  15    -0.115353910651E+04   -0.14376E-03   -0.12223E-04  4146   0.109E-02    0.303E-02
RMM:  16    -0.115353934829E+04   -0.24178E-03   -0.26301E-04  4233   0.155E-02    0.270E-02
RMM:  17    -0.115353957650E+04   -0.22821E-03   -0.28035E-04  4220   0.139E-02    0.261E-02
RMM:  18    -0.115353978069E+04   -0.20419E-03   -0.22519E-04  4016   0.129E-02    0.253E-02
RMM:  19    -0.115353997695E+04   -0.19626E-03   -0.23758E-04  3940   0.129E-02    0.239E-02
RMM:  20    -0.115354045392E+04   -0.47697E-03   -0.15266E-03  4580   0.346E-02    0.245E-02
RMM:  21    -0.115354092605E+04   -0.47213E-03   -0.26586E-03  4710   0.440E-02    0.269E-02
RMM:  22    -0.115354114365E+04   -0.21760E-03   -0.46794E-04  4107   0.168E-02    0.207E-02
RMM:  23    -0.115354132688E+04   -0.18323E-03   -0.64723E-04  4152   0.232E-02    0.218E-02
RMM:  24    -0.115354141826E+04   -0.91376E-04   -0.19043E-04  3643   0.113E-02
   5 F= -.11535414E+04 E0= -.11535414E+04  d E =-.443057E+01  mag=     8.0000
       N       E                     dE             d eps       ncg     rms          rms(c)
DAV:   1    -0.115286127107E+04    0.68006E+00   -0.55064E+02  6176   0.240E+01    0.110E+01
RMM:   2    -0.115545334244E+04   -0.25921E+01   -0.21231E+01  6160   0.549E+00    0.102E+01
RMM:   3    -0.115556797927E+04   -0.11464E+00   -0.10871E+00  6392   0.174E+00    0.652E+00
RMM:   4    -0.115549916911E+04    0.68810E-01   -0.39286E-01  6796   0.665E-01    0.335E+00
RMM:   5    -0.115547613332E+04    0.23036E-01   -0.15055E-01  6481   0.411E-01    0.128E+00
RMM:   6    -0.115547295993E+04    0.31734E-02   -0.23919E-02  7646   0.149E-01    0.468E-01
RMM:   7    -0.115547230461E+04    0.65532E-03   -0.44863E-03  8506   0.593E-02    0.298E-01
RMM:   8    -0.115547268175E+04   -0.37714E-03   -0.28684E-03  7505   0.478E-02    0.142E-01
RMM:   9    -0.115547292124E+04   -0.23949E-03   -0.89923E-04  6402   0.296E-02    0.647E-02
RMM:  10    -0.115547303457E+04   -0.11332E-03   -0.36924E-04  5020   0.179E-02    0.461E-02
RMM:  11    -0.115547320069E+04   -0.16612E-03   -0.23642E-04  4562   0.158E-02    0.399E-02
RMM:  12    -0.115547332170E+04   -0.12101E-03   -0.15349E-04  4299   0.131E-02    0.349E-02
RMM:  13    -0.115547347465E+04   -0.15295E-03   -0.14162E-04  4143   0.126E-02    0.324E-02
RMM:  14    -0.115547362061E+04   -0.14597E-03   -0.13656E-04  4069   0.112E-02    0.295E-02
RMM:  15    -0.115547385028E+04   -0.22967E-03   -0.23664E-04  4122   0.139E-02    0.277E-02
RMM:  16    -0.115547402798E+04   -0.17769E-03   -0.17324E-04  3922   0.113E-02    0.267E-02
RMM:  17    -0.115547423716E+04   -0.20918E-03   -0.22049E-04  3950   0.126E-02    0.256E-02
RMM:  18    -0.115547460458E+04   -0.36741E-03   -0.64383E-04  4241   0.209E-02    0.251E-02
RMM:  19    -0.115547506862E+04   -0.46404E-03   -0.13835E-03  4466   0.299E-02    0.249E-02
RMM:  20    -0.115547544309E+04   -0.37448E-03   -0.10807E-03  4313   0.250E-02    0.224E-02
RMM:  21    -0.115547581830E+04   -0.37521E-03   -0.15701E-03  4447   0.315E-02    0.237E-02
RMM:  22    -0.115547601644E+04   -0.19814E-03   -0.41986E-04  3943   0.152E-02    0.184E-02
RMM:  23    -0.115547622583E+04   -0.20940E-03   -0.78659E-04  4197   0.239E-02    0.189E-02
RMM:  24    -0.115547641375E+04   -0.18792E-03   -0.46728E-03  4852   0.584E-02    0.303E-02
RMM:  25    -0.115547671672E+04   -0.30297E-03   -0.44124E-04  4061   0.172E-02    0.128E-02
RMM:  26    -0.115547671968E+04   -0.29636E-05   -0.19049E-03  4461   0.372E-02    0.275E-02
RMM:  27    -0.115547689038E+04   -0.17070E-03   -0.34286E-04  3890   0.145E-02    0.135E-02
RMM:  28    -0.115547677407E+04    0.11631E-03   -0.22548E-03  4576   0.422E-02    0.258E-02
RMM:  29    -0.115547695643E+04   -0.18235E-03   -0.19680E-04  3829   0.137E-02    0.881E-03
RMM:  30    -0.115547695774E+04   -0.13097E-05   -0.36078E-05  3142   0.725E-03
   6 F= -.11554770E+04 E0= -.11554770E+04  d E =-.193554E+01  mag=     8.0000
       N       E                     dE             d eps       ncg     rms          rms(c)
DAV:   1    -0.115599521198E+04   -0.51826E+00   -0.10767E+02  6272   0.996E+00    0.627E+00
RMM:   2    -0.115640947398E+04   -0.41426E+00   -0.35032E+00  6176   0.222E+00    0.463E+00
RMM:   3    -0.115642927694E+04   -0.19803E-01   -0.22112E-01  6268   0.773E-01    0.220E+00
RMM:   4    -0.115639406623E+04    0.35211E-01   -0.11137E-01  6685   0.360E-01    0.113E+00
RMM:   5    -0.115638636211E+04    0.77041E-02   -0.33794E-02  6399   0.212E-01    0.515E-01
RMM:   6    -0.115638679227E+04   -0.43016E-03   -0.75337E-03  7701   0.792E-02    0.361E-01
RMM:   7    -0.115638686398E+04   -0.71709E-04   -0.14656E-03  7156   0.347E-02    0.193E-01
RMM:   8    -0.115638725347E+04   -0.38949E-03   -0.10018E-03  6117   0.322E-02    0.738E-02
RMM:   9    -0.115638738482E+04   -0.13136E-03   -0.25022E-04  4567   0.176E-02    0.546E-02
RMM:  10    -0.115638747049E+04   -0.85664E-04   -0.11794E-04  4098   0.123E-02
   7 F= -.11563875E+04 E0= -.11563875E+04  d E =-.910513E+00  mag=     8.0000
       N       E                     dE             d eps       ncg     rms          rms(c)
DAV:   1    -0.115380638535E+04    0.25810E+01   -0.24861E+02  6240   0.136E+01    0.979E+00
RMM:   2    -0.115733763927E+04   -0.35313E+01   -0.79520E+00  6183   0.325E+00    0.901E+00
RMM:   3    -0.115751497471E+04   -0.17734E+00   -0.43940E-01  6231   0.107E+00    0.296E+00
RMM:   4    -0.115751605798E+04   -0.10833E-02   -0.12910E-01  7112   0.393E-01    0.157E+00
RMM:   5    -0.115751859413E+04   -0.25362E-02   -0.42435E-02  6571   0.197E-01    0.865E-01
RMM:   6    -0.115752432290E+04   -0.57288E-02   -0.14928E-02  6858   0.124E-01    0.400E-01
RMM:   7    -0.115752652634E+04   -0.22034E-02   -0.32169E-03  6352   0.573E-02    0.269E-01
RMM:   8    -0.115752974560E+04   -0.32193E-02   -0.25441E-03  5746   0.521E-02    0.180E-01
RMM:   9    -0.115753332202E+04   -0.35764E-02   -0.27731E-03  5508   0.559E-02    0.138E-01
RMM:  10    -0.115753504106E+04   -0.17190E-02   -0.11944E-03  4656   0.304E-02    0.133E-01
RMM:  11    -0.115753803305E+04   -0.29920E-02   -0.15683E-03  4682   0.392E-02    0.125E-01
RMM:  12    -0.115754274629E+04   -0.47132E-02   -0.44211E-03  5079   0.674E-02    0.114E-01
RMM:  13    -0.115754608687E+04   -0.33406E-02   -0.37014E-03  4965   0.528E-02    0.105E-01
RMM:  14    -0.115755101204E+04   -0.49252E-02   -0.62399E-03  5221   0.769E-02    0.965E-02
RMM:  15    -0.115755542134E+04   -0.44093E-02   -0.82441E-03  5377   0.830E-02    0.923E-02
RMM:  16    -0.115755639016E+04   -0.96882E-03   -0.12814E-03  4634   0.305E-02    0.832E-02
RMM:  17    -0.115756029285E+04   -0.39027E-02   -0.99384E-03  5429   0.104E-01    0.103E-01
RMM:  18    -0.115756370130E+04   -0.34085E-02   -0.79896E-03  5235   0.817E-02    0.734E-02
RMM:  19    -0.115756464648E+04   -0.94518E-03   -0.91545E-03  5476   0.932E-02    0.123E-01
RMM:  20    -0.115756663899E+04   -0.19925E-02   -0.13359E-03  4619   0.441E-02    0.457E-02
RMM:  21    -0.115756755973E+04   -0.92073E-03   -0.34916E-03  4957   0.596E-02    0.635E-02
RMM:  22    -0.115756870151E+04   -0.11418E-02   -0.31407E-03  4827   0.522E-02    0.351E-02
RMM:  23    -0.115756923159E+04   -0.53008E-03   -0.30214E-03  4910   0.508E-02    0.307E-02
RMM:  24    -0.115756960450E+04   -0.37292E-03   -0.17954E-03  4678   0.384E-02    0.209E-02
RMM:  25    -0.115756975746E+04   -0.15295E-03   -0.11364E-03  4483   0.301E-02    0.166E-02
RMM:  26    -0.115756985795E+04   -0.10049E-03   -0.23845E-04  3972   0.145E-02    0.110E-02
RMM:  27    -0.115756987284E+04   -0.14883E-04   -0.38392E-05  3464   0.101E-02
   8 F= -.11575699E+04 E0= -.11575699E+04  d E =-.118240E+01  mag=     8.0000
       N       E                     dE             d eps       ncg     rms          rms(c)
DAV:   1    -0.115517809708E+04    0.23918E+01   -0.18517E+02  6240   0.102E+01    0.893E+00
RMM:   2    -0.115830430995E+04   -0.31262E+01   -0.56404E+00  6300   0.254E+00    0.783E+00
RMM:   3    -0.115846302305E+04   -0.15871E+00   -0.30239E-01  6303   0.794E-01    0.227E+00
RMM:   4    -0.115846015071E+04    0.28723E-02   -0.82804E-02  6873   0.294E-01    0.109E+00
RMM:   5    -0.115845990965E+04    0.24105E-03   -0.29382E-02  6424   0.152E-01    0.759E-01
RMM:   6    -0.115846176801E+04   -0.18584E-02   -0.95849E-03  6520   0.861E-02    0.264E-01
RMM:   7    -0.115846204668E+04   -0.27868E-03   -0.15125E-03  5483   0.451E-02    0.233E-01
RMM:   8    -0.115846233127E+04   -0.28458E-03   -0.67898E-04  4960   0.283E-02    0.826E-02
RMM:   9    -0.115846248947E+04   -0.15820E-03   -0.36193E-04  4214   0.206E-02    0.405E-02
RMM:  10    -0.115846255325E+04   -0.63786E-04   -0.12088E-04  3883   0.116E-02
   9 F= -.11584626E+04 E0= -.11584626E+04  d E =-.892680E+00  mag=     8.0000
       N       E                     dE             d eps       ncg     rms          rms(c)
DAV:   1    -0.115399514350E+04    0.44673E+01   -0.23275E+02  6248   0.113E+01    0.104E+01
RMM:   2    -0.115909554038E+04   -0.51004E+01   -0.85638E+00  6302   0.305E+00    0.101E+01
RMM:   3    -0.115929341019E+04   -0.19787E+00   -0.47664E-01  6286   0.101E+00    0.286E+00
RMM:   4    -0.115928507880E+04    0.83314E-02   -0.15270E-01  6865   0.388E-01    0.135E+00
RMM:   5    -0.115928236875E+04    0.27100E-02   -0.38010E-02  6561   0.154E-01    0.816E-01
RMM:   6    -0.115928385745E+04   -0.14887E-02   -0.12607E-02  6757   0.979E-02    0.325E-01
RMM:   7    -0.115928431715E+04   -0.45970E-03   -0.24327E-03  5725   0.513E-02    0.230E-01
RMM:   8    -0.115928464490E+04   -0.32775E-03   -0.70197E-04  5300   0.239E-02    0.125E-01
RMM:   9    -0.115928493085E+04   -0.28595E-03   -0.47202E-04  4563   0.226E-02    0.527E-02
RMM:  10    -0.115928503616E+04   -0.10530E-03   -0.16622E-04  3962   0.134E-02    0.377E-02
RMM:  11    -0.115928516123E+04   -0.12507E-03   -0.11800E-04  3884   0.123E-02    0.367E-02
RMM:  12    -0.115928529597E+04   -0.13474E-03   -0.11603E-04  3817   0.121E-02    0.278E-02
RMM:  13    -0.115928543800E+04   -0.14202E-03   -0.17823E-04  3889   0.141E-02    0.206E-02
RMM:  14    -0.115928550862E+04   -0.70626E-04   -0.10361E-04  3584   0.949E-03
  10 F= -.11592855E+04 E0= -.11592855E+04  d E =-.822955E+00  mag=     8.0000
       N       E                     dE             d eps       ncg     rms          rms(c)
DAV:   1    -0.113826749534E+04    0.21018E+02   -0.80379E+02  6296   0.214E+01    0.229E+01
RMM:   2    -0.115950866756E+04   -0.21241E+02   -0.61176E+01  6881   0.805E+00    0.458E+01
RMM:   3    -0.115990468645E+04   -0.39602E+00   -0.45838E+00  6639   0.248E+00    0.177E+01
RMM:   4    -0.115962957934E+04    0.27511E+00   -0.34645E+00  6328   0.198E+00    0.503E+00
RMM:   5    -0.115958676087E+04    0.42818E-01   -0.82097E-01  6748   0.810E-01    0.259E+00
RMM:   6    -0.115959119282E+04   -0.44319E-02   -0.13613E-01  7375   0.334E-01    0.136E+00
RMM:   7    -0.115959604114E+04   -0.48483E-02   -0.42229E-02  7515   0.178E-01    0.747E-01
RMM:   8    -0.115959952221E+04   -0.34811E-02   -0.10073E-02  7664   0.933E-02    0.415E-01
RMM:   9    -0.115960061340E+04   -0.10912E-02   -0.35702E-03  6730   0.561E-02    0.253E-01
RMM:  10    -0.115960123488E+04   -0.62148E-03   -0.15463E-03  5985   0.380E-02    0.135E-01
RMM:  11    -0.115960186151E+04   -0.62663E-03   -0.80652E-04  4950   0.294E-02    0.878E-02
RMM:  12    -0.115960227940E+04   -0.41789E-03   -0.42439E-04  4404   0.214E-02    0.562E-02
RMM:  13    -0.115960273825E+04   -0.45885E-03   -0.55479E-04  4335   0.260E-02    0.373E-02
RMM:  14    -0.115960294400E+04   -0.20574E-03   -0.34206E-04  4105   0.185E-02    0.293E-02
RMM:  15    -0.115960307616E+04   -0.13216E-03   -0.23954E-04  3955   0.160E-02    0.198E-02
RMM:  16    -0.115960314195E+04   -0.65795E-04   -0.15532E-04  3786   0.119E-02
  11 F= -.11596031E+04 E0= -.11596031E+04  d E =-.317633E+00  mag=     7.9978
       N       E                     dE             d eps       ncg     rms          rms(c)
DAV:   1    -0.115646219481E+04    0.31409E+01   -0.19723E+02  6392   0.110E+01    0.130E+01
RMM:   2    -0.115963407541E+04   -0.31719E+01   -0.74350E+00  6326   0.274E+00    0.906E+00
RMM:   3    -0.115982659426E+04   -0.19252E+00   -0.50179E-01  6367   0.933E-01    0.437E+00
RMM:   4    -0.115982132030E+04    0.52740E-02   -0.17494E-01  6674   0.421E-01    0.354E+00
RMM:   5    -0.115982732395E+04   -0.60037E-02   -0.43438E-02  6678   0.190E-01    0.915E-01
RMM:   6    -0.115983266962E+04   -0.53457E-02   -0.10582E-02  6599   0.930E-02    0.631E-01
RMM:   7    -0.115983336096E+04   -0.69134E-03   -0.33423E-03  5613   0.597E-02    0.202E-01
RMM:   8    -0.115983460293E+04   -0.12420E-02   -0.16185E-03  5254   0.345E-02    0.122E-01
RMM:   9    -0.115983562149E+04   -0.10186E-02   -0.80789E-04  4477   0.292E-02    0.806E-02
RMM:  10    -0.115983623191E+04   -0.61041E-03   -0.49633E-04  4234   0.208E-02    0.696E-02
RMM:  11    -0.115983724778E+04   -0.10159E-02   -0.10752E-03  4418   0.361E-02    0.487E-02
RMM:  12    -0.115983793794E+04   -0.69016E-03   -0.17611E-03  4653   0.455E-02    0.294E-02
RMM:  13    -0.115983813865E+04   -0.20071E-03   -0.53425E-04  4217   0.198E-02    0.217E-02
RMM:  14    -0.115983823181E+04   -0.93159E-04   -0.20365E-04  3866   0.147E-02
  12 F= -.11598382E+04 E0= -.11598382E+04  d E =-.235090E+00  mag=     8.0001
       N       E                     dE             d eps       ncg     rms          rms(c)
DAV:   1    -0.115976720508E+04    0.70934E-01   -0.23936E+01  6368   0.454E+00    0.337E+00
RMM:   2    -0.115992854585E+04   -0.16134E+00   -0.56861E-01  6315   0.915E-01    0.233E+00
RMM:   3    -0.115995239281E+04   -0.23847E-01   -0.34383E-02  6418   0.295E-01    0.875E-01
RMM:   4    -0.115995131233E+04    0.10805E-02   -0.89026E-03  7203   0.107E-01    0.461E-01
RMM:   5    -0.115995123603E+04    0.76297E-04   -0.44743E-03  6516   0.616E-02    0.151E-01
RMM:   6    -0.115995135067E+04   -0.11464E-03   -0.51115E-04  4990   0.281E-02    0.792E-02
RMM:   7    -0.115995141120E+04   -0.60533E-04   -0.16332E-04  4080   0.140E-02    0.537E-02
RMM:   8    -0.115995150895E+04   -0.97754E-04   -0.12289E-04  3872   0.129E-02
  13 F= -.11599515E+04 E0= -.11599515E+04  d E =-.113277E+00  mag=     8.0000
       N       E                     dE             d eps       ncg     rms          rms(c)
DAV:   1    -0.115995103169E+04    0.37951E-03   -0.51221E+00  6512   0.231E+00    0.150E+00
RMM:   2    -0.115997997823E+04   -0.28947E-01   -0.12524E-01  6217   0.441E-01    0.945E-01
RMM:   3    -0.115998420877E+04   -0.42305E-02   -0.77831E-03  6288   0.160E-01    0.472E-01
RMM:   4    -0.115998380021E+04    0.40855E-03   -0.32134E-03  6880   0.609E-02    0.239E-01
RMM:   5    -0.115998377807E+04    0.22147E-04   -0.96946E-04  5706   0.335E-02    0.715E-02
RMM:   6    -0.115998378102E+04   -0.29557E-05   -0.10551E-04  3970   0.142E-02    0.430E-02
RMM:   7    -0.115998380483E+04   -0.23803E-04   -0.67176E-05  3727   0.951E-03    0.289E-02
RMM:   8    -0.115998382303E+04   -0.18203E-04   -0.34527E-05  3602   0.830E-03
  14 F= -.11599838E+04 E0= -.11599838E+04  d E =-.323141E-01  mag=     8.0000
       N       E                     dE             d eps       ncg     rms          rms(c)
DAV:   1    -0.115993656228E+04    0.47243E-01   -0.11769E+01  6368   0.351E+00    0.225E+00
RMM:   2    -0.116000911203E+04   -0.72550E-01   -0.26714E-01  6435   0.654E-01    0.141E+00
RMM:   3    -0.116002049799E+04   -0.11386E-01   -0.15805E-02  6465   0.224E-01    0.590E-01
RMM:   4    -0.116002031066E+04    0.18732E-03   -0.39840E-03  7372   0.748E-02    0.304E-01
RMM:   5    -0.116002038902E+04   -0.78353E-04   -0.20467E-03  6408   0.432E-02    0.803E-02
RMM:   6    -0.116002041195E+04   -0.22931E-04   -0.23241E-04  4156   0.203E-02    0.472E-02
RMM:   7    -0.116002042372E+04   -0.11777E-04   -0.10502E-04  3806   0.120E-02    0.329E-02
RMM:   8    -0.116002044025E+04   -0.16524E-04   -0.64710E-05  3679   0.101E-02
  15 F= -.11600204E+04 E0= -.11600204E+04  d E =-.366172E-01  mag=     8.0000
       N       E                     dE             d eps       ncg     rms          rms(c)
DAV:   1    -0.115993337588E+04    0.87048E-01   -0.17935E+01  6272   0.449E+00    0.261E+00
RMM:   2    -0.116003439927E+04   -0.10102E+00   -0.42026E-01  6523   0.830E-01    0.159E+00
RMM:   3    -0.116004939957E+04   -0.15000E-01   -0.24147E-02  6627   0.273E-01    0.628E-01
RMM:   4    -0.116004914245E+04    0.25711E-03   -0.55027E-03  7824   0.881E-02    0.340E-01
RMM:   5    -0.116004924462E+04   -0.10217E-03   -0.31641E-03  6763   0.512E-02    0.792E-02
RMM:   6    -0.116004927789E+04   -0.33269E-04   -0.39616E-04  4647   0.251E-02    0.437E-02
RMM:   7    -0.116004929238E+04   -0.14498E-04   -0.19469E-04  4066   0.129E-02    0.270E-02
RMM:   8    -0.116004930484E+04   -0.12455E-04   -0.10346E-04  3781   0.115E-02
  16 F= -.11600493E+04 E0= -.11600493E+04  d E =-.288646E-01  mag=     8.0000
       N       E                     dE             d eps       ncg     rms          rms(c)
DAV:   1    -0.116003088085E+04    0.18412E-01   -0.66810E+00  6360   0.287E+00    0.134E+00
RMM:   2    -0.116005971560E+04   -0.28835E-01   -0.16766E-01  6529   0.524E-01    0.762E-01
RMM:   3    -0.116006339328E+04   -0.36777E-02   -0.99374E-03  6761   0.173E-01    0.350E-01
RMM:   4    -0.116006321913E+04    0.17415E-03   -0.22522E-03  7487   0.545E-02    0.172E-01
RMM:   5    -0.116006323392E+04   -0.14792E-04   -0.97329E-04  6164   0.297E-02    0.408E-02
RMM:   6    -0.116006324783E+04   -0.13914E-04   -0.16305E-04  3872   0.154E-02    0.246E-02
RMM:   7    -0.116006325846E+04   -0.10627E-04   -0.85305E-05  3739   0.106E-02    0.174E-02
RMM:   8    -0.116006326855E+04   -0.10090E-04   -0.54178E-05  3647   0.846E-03
  17 F= -.11600633E+04 E0= -.11600633E+04  d E =-.139637E-01  mag=     8.0000
       N       E                     dE             d eps       ncg     rms          rms(c)
DAV:   1    -0.116006446860E+04   -0.12101E-02   -0.15227E+00  6496   0.141E+00    0.457E-01
RMM:   2    -0.116006887036E+04   -0.44018E-02   -0.40459E-02  6409   0.259E-01    0.282E-01
RMM:   3    -0.116006913331E+04   -0.26295E-03   -0.25089E-03  6469   0.848E-02    0.168E-01
RMM:   4    -0.116006904489E+04    0.88419E-04   -0.50689E-04  5120   0.274E-02    0.826E-02
RMM:   5    -0.116006903872E+04    0.61739E-05   -0.19700E-04  3847   0.181E-02    0.211E-02
RMM:   6    -0.116006904500E+04   -0.62867E-05   -0.57267E-05  3612   0.124E-02    0.212E-02
RMM:   7    -0.116006904885E+04   -0.38510E-05   -0.33560E-05  3517   0.768E-03    0.119E-02
RMM:   8    -0.116006905241E+04   -0.35571E-05   -0.20267E-05  3443   0.732E-03
  18 F= -.11600691E+04 E0= -.11600691E+04  d E =-.578386E-02  mag=     8.0000
       N       E                     dE             d eps       ncg     rms          rms(c)
DAV:   1    -0.116006735007E+04    0.16988E-02   -0.21587E+00  6432   0.168E+00    0.565E-01
RMM:   2    -0.116007408002E+04   -0.67300E-02   -0.54907E-02  6545   0.297E-01    0.325E-01
RMM:   3    -0.116007455741E+04   -0.47739E-03   -0.29490E-03  6522   0.957E-02    0.169E-01
RMM:   4    -0.116007445900E+04    0.98411E-04   -0.64525E-04  5639   0.310E-02    0.838E-02
RMM:   5    -0.116007444642E+04    0.12582E-04   -0.26528E-04  4015   0.198E-02    0.222E-02
RMM:   6    -0.116007445279E+04   -0.63681E-05   -0.61616E-05  3616   0.128E-02    0.120E-02
RMM:   7    -0.116007445665E+04   -0.38608E-05   -0.36547E-05  3498   0.784E-03    0.102E-02
RMM:   8    -0.116007445919E+04   -0.25416E-05   -0.21110E-05  3402   0.727E-03
  19 F= -.11600745E+04 E0= -.11600745E+04  d E =-.540678E-02  mag=     8.0000
       N       E                     dE             d eps       ncg     rms          rms(c)
DAV:   1    -0.116007444863E+04    0.80176E-05   -0.16506E+00  6448   0.149E+00    0.383E-01
RMM:   2    -0.116007863979E+04   -0.41912E-02   -0.41308E-02  6481   0.257E-01    0.227E-01
RMM:   3    -0.116007876008E+04   -0.12029E-03   -0.21884E-03  6395   0.843E-02    0.131E-01
RMM:   4    -0.116007867071E+04    0.89368E-04   -0.46889E-04  5082   0.269E-02    0.670E-02
RMM:   5    -0.116007865821E+04    0.12503E-04   -0.17470E-04  3766   0.177E-02    0.178E-02
RMM:   6    -0.116007866414E+04   -0.59325E-05   -0.51302E-05  3573   0.119E-02    0.139E-02
RMM:   7    -0.116007866748E+04   -0.33399E-05   -0.32178E-05  3468   0.760E-03    0.121E-02
RMM:   8    -0.116007866959E+04   -0.21058E-05   -0.18674E-05  3408   0.721E-03
  20 F= -.11600787E+04 E0= -.11600787E+04  d E =-.421040E-02  mag=     8.0000
       N       E                     dE             d eps       ncg     rms          rms(c)
DAV:   1    -0.116007554047E+04    0.31270E-02   -0.31369E+00  6416   0.205E+00    0.478E-01
RMM:   2    -0.116008322037E+04   -0.76799E-02   -0.77791E-02  6474   0.353E-01    0.282E-01
RMM:   3    -0.116008335139E+04   -0.13102E-03   -0.40040E-03  6589   0.114E-01    0.170E-01
RMM:   4    -0.116008320088E+04    0.15051E-03   -0.88669E-04  6504   0.356E-02    0.893E-02
RMM:   5    -0.116008317795E+04    0.22932E-04   -0.32528E-04  4368   0.204E-02    0.243E-02
RMM:   6    -0.116008318357E+04   -0.56225E-05   -0.64982E-05  3621   0.129E-02    0.130E-02
RMM:   7    -0.116008318784E+04   -0.42710E-05   -0.42187E-05  3525   0.828E-03    0.119E-02
RMM:   8    -0.116008319037E+04   -0.25288E-05   -0.24038E-05  3435   0.741E-03
  21 F= -.11600832E+04 E0= -.11600832E+04  d E =-.452078E-02  mag=     8.0000
