       N       E                     dE             d eps       ncg     rms          rms(c)
DAV:   1    -0.116010801543E+04   -0.11601E+04   -0.15074E-05  3904   0.111E-02    0.115E-02
RMM:   2    -0.116010801550E+04   -0.69340E-07   -0.99019E-06  3178   0.534E-03    0.182E-02
RMM:   3    -0.116010801586E+04   -0.36602E-06   -0.40706E-06  2812   0.327E-03    0.228E-03
RMM:   4    -0.116010801610E+04   -0.24316E-06   -0.21973E-06  2345   0.281E-03    0.395E-03
RMM:   5    -0.116010801622E+04   -0.11781E-06   -0.12794E-06  1908   0.243E-03    0.120E-03
RMM:   6    -0.116010801629E+04   -0.66895E-07   -0.56195E-07  1288   0.212E-03    0.870E-04
RMM:   7    -0.116010801634E+04   -0.46115E-07   -0.29403E-07  1104   0.200E-03    0.726E-04
RMM:   8    -0.116010801635E+04   -0.17113E-07   -0.10137E-07   754   0.193E-03
   1 F= -.11601080E+04 E0= -.11601080E+04  d E =-.116011E+04  mag=     2.0000
       N       E                     dE             d eps       ncg     rms          rms(c)
DAV:   1    -0.116010897088E+04   -0.95454E-03   -0.69349E-01  6416   0.978E-01    0.257E-01
RMM:   2    -0.116011014120E+04   -0.11703E-02   -0.20535E-02  6166   0.188E-01    0.239E-01
RMM:   3    -0.116011002348E+04    0.11771E-03   -0.10612E-03  6063   0.683E-02    0.155E-01
RMM:   4    -0.116010986818E+04    0.15530E-03   -0.57281E-04  5295   0.280E-02    0.867E-02
RMM:   5    -0.116010982579E+04    0.42397E-04   -0.10810E-04  4102   0.197E-02    0.281E-02
RMM:   6    -0.116010982951E+04   -0.37258E-05   -0.41793E-05  3576   0.990E-03    0.174E-02
RMM:   7    -0.116010983069E+04   -0.11810E-05   -0.16302E-05  3512   0.780E-03    0.132E-02
RMM:   8    -0.116010983165E+04   -0.95219E-06   -0.10242E-05  3388   0.479E-03
   2 F= -.11601098E+04 E0= -.11601098E+04  d E =-.181529E-02  mag=     2.0000
       N       E                     dE             d eps       ncg     rms          rms(c)
DAV:   1    -0.116011090114E+04   -0.10704E-02   -0.16183E-01  6392   0.474E-01    0.131E-01
RMM:   2    -0.116011110703E+04   -0.20589E-03   -0.52019E-03  6129   0.954E-02    0.132E-01
RMM:   3    -0.116011105954E+04    0.47491E-04   -0.23021E-04  4185   0.351E-02    0.857E-02
RMM:   4    -0.116011100999E+04    0.49546E-04   -0.17699E-04  3865   0.163E-02    0.508E-02
RMM:   5    -0.116011100020E+04    0.97926E-05   -0.48818E-05  3515   0.123E-02    0.208E-02
RMM:   6    -0.116011100156E+04   -0.13632E-05   -0.21448E-05  3434   0.690E-03    0.128E-02
RMM:   7    -0.116011100242E+04   -0.85882E-06   -0.92936E-06  3284   0.549E-03    0.960E-03
RMM:   8    -0.116011100318E+04   -0.76217E-06   -0.64094E-06  3051   0.352E-03
   3 F= -.11601110E+04 E0= -.11601110E+04  d E =-.117154E-02  mag=     2.0000
       N       E                     dE             d eps       ncg     rms          rms(c)
DAV:   1    -0.116011145503E+04   -0.45261E-03   -0.24294E-01  6352   0.579E-01    0.128E-01
RMM:   2    -0.116011201489E+04   -0.55986E-03   -0.62005E-03  6356   0.102E-01    0.902E-02
RMM:   3    -0.116011201538E+04   -0.49468E-06   -0.31287E-04  4277   0.407E-02    0.558E-02
RMM:   4    -0.116011200029E+04    0.15095E-04   -0.91968E-05  3567   0.135E-02    0.296E-02
RMM:   5    -0.116011200032E+04   -0.35201E-07   -0.31189E-05  3476   0.974E-03    0.842E-03
RMM:   6    -0.116011200178E+04   -0.14560E-05   -0.12843E-05  3362   0.643E-03    0.529E-03
RMM:   7    -0.116011200264E+04   -0.86540E-06   -0.78292E-06  3174   0.462E-03    0.372E-03
RMM:   8    -0.116011200325E+04   -0.60981E-06   -0.51695E-06  3025   0.386E-03
   4 F= -.11601120E+04 E0= -.11601120E+04  d E =-.100007E-02  mag=     2.0000
       N       E                     dE             d eps       ncg     rms          rms(c)
DAV:   1    -0.116011230025E+04   -0.29761E-03   -0.37804E-01  6336   0.722E-01    0.140E-01
RMM:   2    -0.116011311899E+04   -0.81873E-03   -0.92349E-03  6295   0.121E-01    0.925E-02
RMM:   3    -0.116011311652E+04    0.24655E-05   -0.50750E-04  4829   0.515E-02    0.584E-02
RMM:   4    -0.116011310027E+04    0.16250E-04   -0.12478E-04  3607   0.157E-02    0.353E-02
RMM:   5    -0.116011310107E+04   -0.79638E-06   -0.39197E-05  3508   0.110E-02    0.143E-02
RMM:   6    -0.116011310334E+04   -0.22769E-05   -0.18086E-05  3421   0.760E-03    0.536E-03
RMM:   7    -0.116011310462E+04   -0.12800E-05   -0.11354E-05  3347   0.554E-03    0.379E-03
RMM:   8    -0.116011310549E+04   -0.86597E-06   -0.73728E-06  3154   0.461E-03
   5 F= -.11601131E+04 E0= -.11601131E+04  d E =-.110224E-02  mag=     2.0000
