       N       E                     dE             d eps       ncg     rms          rms(c)
DAV:   1     0.119081139197E+05    0.11908E+05   -0.42103E+05 12352   0.131E+03
DAV:   2     0.657531776084E+03   -0.11251E+05   -0.10049E+05 12296   0.375E+02
DAV:   3    -0.135872014645E+04   -0.20163E+04   -0.19432E+04 13208   0.165E+02
DAV:   4    -0.149272344390E+04   -0.13400E+03   -0.13167E+03 16176   0.446E+01
DAV:   5    -0.150130228034E+04   -0.85788E+01   -0.85395E+01 22280   0.102E+01    0.184E+02
RMM:   6    -0.116268867271E+04    0.33861E+03   -0.15990E+03 12508   0.348E+01    0.113E+02
RMM:   7    -0.115952173467E+04    0.31669E+01   -0.57415E+01 12974   0.104E+01    0.846E+01
RMM:   8    -0.121059306351E+04   -0.51071E+02   -0.24020E+02 15109   0.114E+01    0.123E+02
RMM:   9    -0.119152664822E+04    0.19066E+02   -0.23878E+01 13100   0.405E+00    0.627E+01
RMM:  10    -0.115052772204E+04    0.40999E+02   -0.39138E+01 12447   0.557E+00    0.369E+01
RMM:  11    -0.115246977359E+04   -0.19421E+01   -0.53163E+00 13975   0.234E+00    0.326E+01
RMM:  12    -0.115456706055E+04   -0.20973E+01   -0.12420E+00 14269   0.120E+00    0.263E+01
RMM:  13    -0.115572963270E+04   -0.11626E+01   -0.27535E+00 13482   0.180E+00    0.173E+01
RMM:  14    -0.115713085456E+04   -0.14012E+01   -0.10394E+00 13655   0.104E+00    0.128E+01
RMM:  15    -0.115778394996E+04   -0.65310E+00   -0.49868E-01 13859   0.650E-01    0.995E+00
RMM:  16    -0.115816356174E+04   -0.37961E+00   -0.37745E-01 13197   0.584E-01    0.683E+00
RMM:  17    -0.115824797467E+04   -0.84413E-01   -0.18103E-01 14688   0.423E-01    0.463E+00
RMM:  18    -0.115825941764E+04   -0.11443E-01   -0.61101E-02 13445   0.264E-01    0.325E+00
RMM:  19    -0.115826095489E+04   -0.15372E-02   -0.33218E-02 13639   0.179E-01    0.276E+00
RMM:  20    -0.115826682688E+04   -0.58720E-02   -0.27260E-02 13089   0.133E-01    0.247E+00
RMM:  21    -0.115828581826E+04   -0.18991E-01   -0.83019E-02 12420   0.238E-01    0.182E+00
RMM:  22    -0.115829692636E+04   -0.11108E-01   -0.58381E-02 13595   0.212E-01    0.129E+00
RMM:  23    -0.115830230483E+04   -0.53785E-02   -0.10123E-02 13963   0.931E-02    0.117E+00
RMM:  24    -0.115830718864E+04   -0.48838E-02   -0.26069E-02 12304   0.144E-01    0.624E-01
RMM:  25    -0.115831036059E+04   -0.31720E-02   -0.16884E-02 13653   0.126E-01    0.352E-01
RMM:  26    -0.115831024736E+04    0.11324E-03   -0.33449E-03 12739   0.534E-02    0.241E-01
RMM:  27    -0.115831098720E+04   -0.73984E-03   -0.38985E-03 12323   0.537E-02    0.159E-01
RMM:  28    -0.115831165802E+04   -0.67082E-03   -0.15849E-03 10944   0.410E-02    0.133E-01
RMM:  29    -0.115831212029E+04   -0.46227E-03   -0.10807E-03 10761   0.272E-02    0.891E-02
RMM:  30    -0.115831254017E+04   -0.41989E-03   -0.59374E-04  9739   0.248E-02    0.992E-02
RMM:  31    -0.115831283254E+04   -0.29237E-03   -0.11199E-03 10684   0.274E-02    0.455E-02
RMM:  32    -0.115831299933E+04   -0.16678E-03   -0.44173E-04  8996   0.213E-02    0.412E-02
RMM:  33    -0.115831310205E+04   -0.10273E-03   -0.20225E-04  8184   0.134E-02    0.435E-02
RMM:  34    -0.115831319489E+04   -0.92837E-04   -0.13347E-04  7783   0.121E-02
   1 F= -.11583132E+04 E0= -.11583118E+04  d E =-.115831E+04  mag=    -3.9984
       N       E                     dE             d eps       ncg     rms          rms(c)
DAV:   1    -0.113260299778E+04    0.25710E+02   -0.30008E+03 12680   0.466E+01    0.687E+01
RMM:   2    -0.114239019850E+04   -0.97872E+01   -0.14928E+02 12395   0.929E+00    0.328E+01
RMM:   3    -0.114426735020E+04   -0.18772E+01   -0.16042E+01 13791   0.406E+00    0.198E+01
RMM:   4    -0.114390045399E+04    0.36690E+00   -0.10325E+01 13913   0.199E+00    0.141E+01
RMM:   5    -0.114311833368E+04    0.78212E+00   -0.35697E+00 13924   0.125E+00    0.859E+00
RMM:   6    -0.114246556472E+04    0.65277E+00   -0.46290E-01 13838   0.562E-01    0.527E+00
RMM:   7    -0.114232951681E+04    0.13605E+00   -0.35829E-01 14161   0.369E-01    0.317E+00
RMM:   8    -0.114235854044E+04   -0.29024E-01   -0.18005E-01 13713   0.270E-01    0.196E+00
RMM:   9    -0.114243899287E+04   -0.80452E-01   -0.78335E-02 14364   0.184E-01    0.329E+00
RMM:  10    -0.114244615965E+04   -0.71668E-02   -0.15153E-02 15581   0.111E-01    0.326E+00
RMM:  11    -0.114243009415E+04    0.16066E-01   -0.54569E-03 14605   0.564E-02    0.302E+00
RMM:  12    -0.114241564531E+04    0.14449E-01   -0.82445E-03 12797   0.682E-02    0.294E+00
RMM:  13    -0.114242175403E+04   -0.61087E-02   -0.20784E-02 12769   0.113E-01    0.305E+00
RMM:  14    -0.114244987712E+04   -0.28123E-01   -0.38832E-02 12369   0.243E-01    0.193E+00
RMM:  15    -0.114243878677E+04    0.11090E-01   -0.24052E-02 12997   0.172E-01    0.902E-01
RMM:  16    -0.114251733909E+04   -0.78552E-01   -0.18264E-02 12710   0.116E-01    0.520E+00
RMM:  17    -0.114245670732E+04    0.60632E-01   -0.32265E-02 12386   0.214E-01    0.228E+00
RMM:  18    -0.114245616492E+04    0.54240E-03   -0.71385E-03 12380   0.175E-01    0.155E+00
RMM:  19    -0.114245389626E+04    0.22687E-02   -0.59298E-03 12157   0.101E-01    0.138E+00
RMM:  20    -0.114244668187E+04    0.72144E-02   -0.24194E-03 11390   0.536E-02    0.106E+00
RMM:  21    -0.114244369353E+04    0.29883E-02   -0.47431E-03 12309   0.585E-02    0.751E-01
RMM:  22    -0.114244629998E+04   -0.26064E-02   -0.16984E-03 11283   0.831E-02    0.390E-01
RMM:  23    -0.114244635896E+04   -0.58975E-04   -0.42070E-04  9004   0.307E-02
   2 F= -.11424464E+04 E0= -.11424353E+04  d E =0.158668E+02  mag=    -3.9112
       N       E                     dE             d eps       ncg     rms          rms(c)
DAV:   1    -0.112501524670E+04    0.17431E+02   -0.17901E+03 12344   0.221E+01    0.461E+01
RMM:   2    -0.116678660508E+04   -0.41771E+02   -0.43518E+02 16052   0.133E+01    0.563E+01
RMM:   3    -0.116084046400E+04    0.59461E+01   -0.40191E+01 13563   0.446E+00    0.396E+01
RMM:   4    -0.114980139864E+04    0.11039E+02   -0.83920E+00 13211   0.197E+00    0.252E+01
RMM:   5    -0.116440330327E+04   -0.14602E+02   -0.34820E+01 12599   0.413E+00    0.498E+01
RMM:   6    -0.115285992677E+04    0.11543E+02   -0.53244E+00 13547   0.206E+00    0.224E+01
RMM:   7    -0.114991459908E+04    0.29453E+01   -0.18343E+00 12731   0.122E+00    0.117E+01
RMM:   8    -0.114960387214E+04    0.31073E+00   -0.20747E+00 13416   0.122E+00    0.798E+00
RMM:   9    -0.114957936335E+04    0.24509E-01   -0.53751E-01 13497   0.709E-01    0.536E+00
RMM:  10    -0.114972071885E+04   -0.14136E+00   -0.31043E-01 13160   0.505E-01    0.395E+00
RMM:  11    -0.114979780819E+04   -0.77089E-01   -0.99481E-02 13222   0.301E-01    0.320E+00
RMM:  12    -0.114988129669E+04   -0.83489E-01   -0.66780E-02 12946   0.225E-01    0.251E+00
RMM:  13    -0.114993422576E+04   -0.52929E-01   -0.29972E-02 13200   0.170E-01    0.221E+00
RMM:  14    -0.114998731115E+04   -0.53085E-01   -0.40693E-02 12319   0.173E-01    0.181E+00
RMM:  15    -0.115002083135E+04   -0.33520E-01   -0.71768E-02 12386   0.246E-01    0.116E+00
RMM:  16    -0.115001305211E+04    0.77792E-02   -0.14592E-02 13263   0.112E-01    0.886E-01
RMM:  17    -0.115000868516E+04    0.43670E-02   -0.64964E-03 12725   0.614E-02    0.764E-01
RMM:  18    -0.115000483963E+04    0.38455E-02   -0.27926E-03 11823   0.415E-02    0.599E-01
RMM:  19    -0.115000174986E+04    0.30898E-02   -0.26925E-03 11776   0.389E-02    0.439E-01
RMM:  20    -0.114999858086E+04    0.31690E-02   -0.29534E-03 12007   0.398E-02    0.284E-01
RMM:  21    -0.114999805088E+04    0.52997E-03   -0.17444E-03 11101   0.334E-02    0.189E-01
RMM:  22    -0.114999806849E+04   -0.17606E-04   -0.15689E-03 11128   0.340E-02    0.123E-01
RMM:  23    -0.114999877926E+04   -0.71077E-03   -0.16495E-03 11056   0.365E-02    0.861E-02
RMM:  24    -0.114999952496E+04   -0.74570E-03   -0.83401E-04  9986   0.267E-02    0.821E-02
RMM:  25    -0.115000030027E+04   -0.77531E-03   -0.60330E-04  9393   0.226E-02    0.819E-02
RMM:  26    -0.115000114776E+04   -0.84750E-03   -0.56142E-04  9212   0.223E-02    0.861E-02
RMM:  27    -0.115000086424E+04    0.28352E-03   -0.72901E-05  7447   0.107E-02    0.865E-02
RMM:  28    -0.115000053920E+04    0.32504E-03   -0.70488E-05  7372   0.837E-03    0.894E-02
RMM:  29    -0.115000049082E+04    0.48377E-04   -0.17590E-05  6644   0.515E-03
   3 F= -.11500005E+04 E0= -.11500005E+04  d E =-.755413E+01  mag=    -3.9997
       N       E                     dE             d eps       ncg     rms          rms(c)
DAV:   1    -0.114268115148E+04    0.73194E+01   -0.14536E+03 12288   0.382E+01    0.183E+01
RMM:   2    -0.115585524429E+04   -0.13174E+02   -0.15904E+02 12310   0.117E+01    0.168E+01
RMM:   3    -0.115328182652E+04    0.25734E+01   -0.74944E+00 13305   0.340E+00    0.128E+01
RMM:   4    -0.115261281141E+04    0.66902E+00   -0.26736E+00 14006   0.125E+00    0.104E+01
RMM:   5    -0.115301275083E+04   -0.39994E+00   -0.27293E+00 13063   0.895E-01    0.825E+00
RMM:   6    -0.115240153174E+04    0.61122E+00   -0.13800E+00 13747   0.708E-01    0.220E+00
RMM:   7    -0.115241369723E+04   -0.12165E-01   -0.17646E-01 13290   0.400E-01    0.102E+00
RMM:   8    -0.115241927749E+04   -0.55803E-02   -0.39625E-02 15296   0.157E-01    0.640E-01
RMM:   9    -0.115242734684E+04   -0.80694E-02   -0.13544E-02 14797   0.862E-02    0.533E-01
RMM:  10    -0.115243363786E+04   -0.62910E-02   -0.68099E-03 13421   0.667E-02    0.276E-01
RMM:  11    -0.115244048804E+04   -0.68502E-02   -0.43062E-03 12553   0.493E-02    0.256E-01
RMM:  12    -0.115244645989E+04   -0.59719E-02   -0.20471E-03 10856   0.351E-02    0.233E-01
RMM:  13    -0.115245465040E+04   -0.81905E-02   -0.30068E-03 10786   0.406E-02    0.229E-01
RMM:  14    -0.115246098874E+04   -0.63383E-02   -0.22835E-03 10203   0.356E-02    0.222E-01
RMM:  15    -0.115247111374E+04   -0.10125E-01   -0.48263E-03 10817   0.503E-02    0.213E-01
RMM:  16    -0.115249062171E+04   -0.19508E-01   -0.21037E-02 11872   0.106E-01    0.196E-01
RMM:  17    -0.115248678367E+04    0.38380E-02   -0.20100E-03  9944   0.385E-02    0.237E-01
RMM:  18    -0.115250605892E+04   -0.19275E-01   -0.20160E-02 11629   0.103E-01    0.144E-01
RMM:  19    -0.115251186553E+04   -0.58066E-02   -0.90845E-03 11063   0.719E-02    0.200E-01
RMM:  20    -0.115251695623E+04   -0.50907E-02   -0.47300E-03 10653   0.473E-02    0.156E-01
RMM:  21    -0.115251990650E+04   -0.29503E-02   -0.54855E-03 10785   0.521E-02    0.190E-01
RMM:  22    -0.115252367491E+04   -0.37684E-02   -0.10653E-02 11274   0.722E-02    0.210E-01
RMM:  23    -0.115252427953E+04   -0.60462E-03   -0.75678E-04  9104   0.209E-02    0.176E-01
RMM:  24    -0.115252033742E+04    0.39421E-02   -0.10570E-02 11283   0.746E-02    0.123E-01
RMM:  25    -0.115250537784E+04    0.14960E-01   -0.32525E-02 11965   0.133E-01    0.203E-01
RMM:  26    -0.115251665550E+04   -0.11278E-01   -0.98306E-03 11162   0.750E-02    0.145E-01
RMM:  27    -0.115251922339E+04   -0.25679E-02   -0.20939E-03  9917   0.378E-02    0.119E-01
RMM:  28    -0.115252216266E+04   -0.29393E-02   -0.31848E-03 10570   0.411E-02    0.930E-02
RMM:  29    -0.115252486917E+04   -0.27065E-02   -0.10054E-02 11241   0.721E-02    0.131E-01
RMM:  30    -0.115252531626E+04   -0.44709E-03   -0.94514E-04  8970   0.221E-02    0.126E-01
RMM:  31    -0.115252555004E+04   -0.23378E-03   -0.77600E-04  9104   0.187E-02    0.144E-01
RMM:  32    -0.115252545505E+04    0.94991E-04   -0.79233E-05  7402   0.851E-03
   4 F= -.11525255E+04 E0= -.11525255E+04  d E =-.252496E+01  mag=    -4.0000
       N       E                     dE             d eps       ncg     rms          rms(c)
DAV:   1    -0.115567844241E+04   -0.31529E+01   -0.32074E+02 12368   0.154E+01    0.101E+01
RMM:   2    -0.115614341055E+04   -0.46497E+00   -0.13475E+01 12296   0.435E+00    0.927E+00
RMM:   3    -0.115598895857E+04    0.15445E+00   -0.78331E-01 13514   0.125E+00    0.629E+00
RMM:   4    -0.115588190060E+04    0.10706E+00   -0.75510E-01 12938   0.794E-01    0.252E+00
RMM:   5    -0.115582665878E+04    0.55242E-01   -0.13618E-01 13757   0.374E-01    0.835E-01
RMM:   6    -0.115582496954E+04    0.16892E-02   -0.21630E-02 17371   0.127E-01    0.613E-01
RMM:   7    -0.115582476866E+04    0.20088E-03   -0.80492E-03 17118   0.727E-02    0.309E-01
RMM:   8    -0.115582496099E+04   -0.19233E-03   -0.28623E-03 15575   0.455E-02    0.117E-01
RMM:   9    -0.115582493741E+04    0.23579E-04   -0.83339E-04 13748   0.257E-02
   5 F= -.11558249E+04 E0= -.11558249E+04  d E =-.329948E+01  mag=    -4.0000
       N       E                     dE             d eps       ncg     rms          rms(c)
DAV:   1    -0.115679458901E+04   -0.96963E+00   -0.21324E+02 12640   0.150E+01    0.544E+00
RMM:   2    -0.115729816654E+04   -0.50358E+00   -0.65986E+00 12312   0.311E+00    0.597E+00
RMM:   3    -0.115729681770E+04    0.13488E-02   -0.33957E-01 13168   0.964E-01    0.437E+00
RMM:   4    -0.115729680096E+04    0.16742E-04   -0.20201E-01 13027   0.442E-01    0.246E+00
RMM:   5    -0.115726335313E+04    0.33448E-01   -0.80967E-02 12660   0.298E-01    0.698E-01
RMM:   6    -0.115726197824E+04    0.13749E-02   -0.17875E-02 14708   0.111E-01    0.370E-01
RMM:   7    -0.115726149753E+04    0.48071E-03   -0.22335E-03 14021   0.401E-02    0.226E-01
RMM:   8    -0.115726153509E+04   -0.37556E-04   -0.13623E-03 12357   0.331E-02    0.103E-01
RMM:   9    -0.115726162495E+04   -0.89869E-04   -0.32832E-04  9470   0.216E-02
   6 F= -.11572616E+04 E0= -.11572616E+04  d E =-.143669E+01  mag=    -4.0000
       N       E                     dE             d eps       ncg     rms          rms(c)
DAV:   1    -0.115790417290E+04   -0.64264E+00   -0.26304E+02 12480   0.145E+01    0.638E+00
RMM:   2    -0.115882142209E+04   -0.91725E+00   -0.78590E+00 12350   0.282E+00    0.450E+00
RMM:   3    -0.115887215831E+04   -0.50736E-01   -0.54258E-01 12797   0.100E+00    0.247E+00
RMM:   4    -0.115886845597E+04    0.37023E-02   -0.14904E-01 13704   0.354E-01    0.129E+00
RMM:   5    -0.115887314835E+04   -0.46924E-02   -0.46797E-02 14290   0.193E-01    0.494E-01
RMM:   6    -0.115887570067E+04   -0.25523E-02   -0.81666E-03 15570   0.775E-02    0.313E-01
RMM:   7    -0.115887910199E+04   -0.34013E-02   -0.33620E-03 14254   0.452E-02    0.219E-01
RMM:   8    -0.115888294746E+04   -0.38455E-02   -0.24377E-03 12095   0.407E-02    0.166E-01
RMM:   9    -0.115888556252E+04   -0.26151E-02   -0.15860E-03 10965   0.324E-02    0.140E-01
RMM:  10    -0.115888910468E+04   -0.35422E-02   -0.26463E-03 11082   0.417E-02    0.111E-01
RMM:  11    -0.115889285562E+04   -0.37509E-02   -0.46218E-03 11410   0.561E-02    0.832E-02
RMM:  12    -0.115889388320E+04   -0.10276E-02   -0.11901E-03  9811   0.288E-02    0.699E-02
RMM:  13    -0.115889541961E+04   -0.15364E-02   -0.18585E-03 10489   0.349E-02    0.549E-02
RMM:  14    -0.115889678792E+04   -0.13683E-02   -0.24390E-03 10614   0.415E-02    0.433E-02
RMM:  15    -0.115889758695E+04   -0.79902E-03   -0.16759E-03 10278   0.343E-02    0.356E-02
RMM:  16    -0.115889810805E+04   -0.52111E-03   -0.11506E-03  9780   0.285E-02    0.314E-02
RMM:  17    -0.115889849305E+04   -0.38500E-03   -0.85154E-04  9421   0.244E-02    0.275E-02
RMM:  18    -0.115889892595E+04   -0.43290E-03   -0.12637E-03  9963   0.298E-02    0.224E-02
RMM:  19    -0.115889925244E+04   -0.32649E-03   -0.11876E-03  9889   0.295E-02    0.174E-02
RMM:  20    -0.115889949039E+04   -0.23795E-03   -0.11218E-03  9851   0.285E-02    0.146E-02
RMM:  21    -0.115889968536E+04   -0.19497E-03   -0.11587E-03  9903   0.292E-02    0.102E-02
RMM:  22    -0.115889980578E+04   -0.12043E-03   -0.83019E-04  9480   0.246E-02    0.836E-03
RMM:  23    -0.115889988982E+04   -0.84035E-04   -0.65653E-04  9177   0.217E-02
   7 F= -.11588999E+04 E0= -.11588999E+04  d E =-.163826E+01  mag=    -4.0000
       N       E                     dE             d eps       ncg     rms          rms(c)
DAV:   1    -0.115951993258E+04   -0.62013E+00   -0.20212E+02 12296   0.108E+01    0.470E+00
RMM:   2    -0.116020842543E+04   -0.68849E+00   -0.72174E+00 12498   0.216E+00    0.340E+00
RMM:   3    -0.116019142946E+04    0.16996E-01   -0.40687E-01 12592   0.778E-01    0.193E+00
RMM:   4    -0.116017808787E+04    0.13342E-01   -0.18560E-01 13587   0.289E-01    0.958E-01
RMM:   5    -0.116017330765E+04    0.47802E-02   -0.24468E-02 13799   0.135E-01    0.424E-01
RMM:   6    -0.116017420514E+04   -0.89748E-03   -0.85691E-03 14759   0.614E-02    0.247E-01
RMM:   7    -0.116017451808E+04   -0.31295E-03   -0.21930E-03 12400   0.347E-02    0.146E-01
RMM:   8    -0.116017504934E+04   -0.53125E-03   -0.74135E-04 10129   0.247E-02    0.782E-02
RMM:   9    -0.116017538564E+04   -0.33630E-03   -0.33831E-04  8691   0.172E-02    0.576E-02
RMM:  10    -0.116017571334E+04   -0.32770E-03   -0.24765E-04  8417   0.143E-02    0.509E-02
RMM:  11    -0.116017617947E+04   -0.46614E-03   -0.35891E-04  8560   0.173E-02    0.427E-02
RMM:  12    -0.116017666529E+04   -0.48582E-03   -0.59382E-04  9195   0.214E-02    0.335E-02
RMM:  13    -0.116017701478E+04   -0.34949E-03   -0.67577E-04  9291   0.238E-02    0.252E-02
RMM:  14    -0.116017720632E+04   -0.19153E-03   -0.59964E-04  9148   0.226E-02    0.179E-02
RMM:  15    -0.116017726262E+04   -0.56308E-04   -0.17500E-04  7784   0.124E-02
   8 F= -.11601773E+04 E0= -.11601773E+04  d E =-.127737E+01  mag=    -4.0000
       N       E                     dE             d eps       ncg     rms          rms(c)
DAV:   1    -0.116070038683E+04   -0.52318E+00   -0.78989E+01 12568   0.670E+00    0.287E+00
RMM:   2    -0.116089360957E+04   -0.19322E+00   -0.21924E+00 12351   0.128E+00    0.191E+00
RMM:   3    -0.116088602470E+04    0.75849E-02   -0.12142E-01 12464   0.448E-01    0.107E+00
RMM:   4    -0.116088201950E+04    0.40052E-02   -0.47129E-02 13633   0.170E-01    0.468E-01
RMM:   5    -0.116088225411E+04   -0.23461E-03   -0.70737E-03 13697   0.765E-02    0.239E-01
RMM:   6    -0.116088288409E+04   -0.62998E-03   -0.18170E-03 13088   0.338E-02    0.152E-01
RMM:   7    -0.116088340954E+04   -0.52545E-03   -0.76947E-04 10791   0.239E-02    0.981E-02
RMM:   8    -0.116088385156E+04   -0.44201E-03   -0.43868E-04  9244   0.203E-02    0.572E-02
RMM:   9    -0.116088406531E+04   -0.21375E-03   -0.19253E-04  8321   0.134E-02    0.479E-02
RMM:  10    -0.116088429623E+04   -0.23092E-03   -0.17630E-04  8159   0.132E-02    0.412E-02
RMM:  11    -0.116088464231E+04   -0.34607E-03   -0.41931E-04  8797   0.199E-02    0.299E-02
RMM:  12    -0.116088478628E+04   -0.14398E-03   -0.22459E-04  7952   0.139E-02    0.255E-02
RMM:  13    -0.116088489677E+04   -0.11048E-03   -0.17360E-04  7686   0.120E-02    0.226E-02
RMM:  14    -0.116088497634E+04   -0.79574E-04   -0.12147E-04  7121   0.969E-03
   9 F= -.11608850E+04 E0= -.11608850E+04  d E =-.707714E+00  mag=    -4.0000
       N       E                     dE             d eps       ncg     rms          rms(c)
DAV:   1    -0.116125977628E+04   -0.37488E+00   -0.53924E+01 12528   0.600E+00    0.248E+00
RMM:   2    -0.116139703558E+04   -0.13726E+00   -0.14783E+00 12344   0.111E+00    0.166E+00
RMM:   3    -0.116139738885E+04   -0.35327E-03   -0.95308E-02 12487   0.406E-01    0.944E-01
RMM:   4    -0.116139636004E+04    0.10288E-02   -0.33164E-02 13716   0.150E-01    0.425E-01
RMM:   5    -0.116139598695E+04    0.37308E-03   -0.58467E-03 13927   0.661E-02    0.211E-01
RMM:   6    -0.116139640693E+04   -0.41997E-03   -0.13962E-03 12252   0.307E-02    0.134E-01
RMM:   7    -0.116139683450E+04   -0.42758E-03   -0.53251E-04 10119   0.219E-02    0.833E-02
RMM:   8    -0.116139720318E+04   -0.36868E-03   -0.32647E-04  9096   0.183E-02    0.508E-02
RMM:   9    -0.116139737272E+04   -0.16953E-03   -0.16655E-04  8196   0.126E-02    0.424E-02
RMM:  10    -0.116139757992E+04   -0.20720E-03   -0.17172E-04  7937   0.135E-02    0.365E-02
RMM:  11    -0.116139777357E+04   -0.19365E-03   -0.20362E-04  7841   0.135E-02    0.314E-02
RMM:  12    -0.116139792764E+04   -0.15407E-03   -0.19378E-04  7579   0.125E-02    0.279E-02
RMM:  13    -0.116139806901E+04   -0.14137E-03   -0.19416E-04  7372   0.122E-02    0.262E-02
RMM:  14    -0.116139820265E+04   -0.13364E-03   -0.20361E-04  7180   0.122E-02    0.239E-02
RMM:  15    -0.116139838929E+04   -0.18664E-03   -0.45005E-04  7696   0.189E-02    0.206E-02
RMM:  16    -0.116139860201E+04   -0.21272E-03   -0.10899E-03  8684   0.297E-02    0.151E-02
RMM:  17    -0.116139872766E+04   -0.12565E-03   -0.73924E-04  7925   0.232E-02    0.116E-02
RMM:  18    -0.116139878719E+04   -0.59529E-04   -0.30760E-04  7125   0.140E-02
  10 F= -.11613988E+04 E0= -.11613988E+04  d E =-.513811E+00  mag=    -4.0000
       N       E                     dE             d eps       ncg     rms          rms(c)
DAV:   1    -0.115951086628E+04    0.18879E+01   -0.38424E+02 12440   0.170E+01    0.105E+01
RMM:   2    -0.116145986832E+04   -0.19490E+01   -0.21327E+01 12335   0.409E+00    0.877E+00
RMM:   3    -0.116135314920E+04    0.10672E+00   -0.12458E+00 12609   0.162E+00    0.637E+00
RMM:   4    -0.116140352557E+04   -0.50376E-01   -0.11750E+00 13331   0.101E+00    0.274E+00
RMM:   5    -0.116132802521E+04    0.75500E-01   -0.15506E-01 12960   0.491E-01    0.142E+00
RMM:   6    -0.116132058842E+04    0.74368E-02   -0.13058E-01 15357   0.243E-01    0.595E-01
RMM:   7    -0.116132044605E+04    0.14238E-03   -0.16290E-02 15657   0.117E-01    0.400E-01
RMM:   8    -0.116132027199E+04    0.17405E-03   -0.37739E-03 14912   0.546E-02    0.124E-01
RMM:   9    -0.116132053349E+04   -0.26149E-03   -0.10217E-03 12782   0.286E-02    0.746E-02
RMM:  10    -0.116132073059E+04   -0.19710E-03   -0.48258E-04 10405   0.187E-02    0.607E-02
RMM:  11    -0.116132098748E+04   -0.25689E-03   -0.35458E-04  9629   0.174E-02    0.499E-02
RMM:  12    -0.116132119200E+04   -0.20452E-03   -0.25179E-04  8845   0.142E-02    0.450E-02
RMM:  13    -0.116132141684E+04   -0.22484E-03   -0.23145E-04  8407   0.141E-02    0.420E-02
RMM:  14    -0.116132183769E+04   -0.42085E-03   -0.61852E-04  8588   0.233E-02    0.381E-02
RMM:  15    -0.116132228778E+04   -0.45009E-03   -0.11054E-03  8986   0.304E-02    0.303E-02
RMM:  16    -0.116132275231E+04   -0.46453E-03   -0.22055E-03  9633   0.446E-02    0.231E-02
RMM:  17    -0.116132298428E+04   -0.23197E-03   -0.11323E-03  8831   0.284E-02    0.188E-02
RMM:  18    -0.116132309992E+04   -0.11564E-03   -0.48759E-04  7946   0.188E-02    0.157E-02
RMM:  19    -0.116132319178E+04   -0.91853E-04   -0.52584E-04  8029   0.198E-02
  11 F= -.11613232E+04 E0= -.11613232E+04  d E =0.755954E-01  mag=    -4.0000
       N       E                     dE             d eps       ncg     rms          rms(c)
DAV:   1    -0.115891322206E+04    0.24099E+01   -0.49596E+02 12304   0.211E+01    0.124E+01
RMM:   2    -0.116134982254E+04   -0.24366E+01   -0.27309E+01 12291   0.480E+00    0.108E+01
RMM:   3    -0.116121594046E+04    0.13388E+00   -0.16561E+00 12821   0.158E+00    0.674E+00
RMM:   4    -0.116119597498E+04    0.19965E-01   -0.74721E-01 13683   0.642E-01    0.303E+00
RMM:   5    -0.116113126783E+04    0.64707E-01   -0.14739E-01 13415   0.319E-01    0.855E-01
RMM:   6    -0.116113175573E+04   -0.48790E-03   -0.21429E-02 15677   0.134E-01    0.528E-01
RMM:   7    -0.116113315738E+04   -0.14017E-02   -0.59884E-03 15428   0.594E-02    0.229E-01
RMM:   8    -0.116113421552E+04   -0.10581E-02   -0.18919E-03 13350   0.380E-02    0.971E-02
RMM:   9    -0.116113460134E+04   -0.38581E-03   -0.76311E-04 10710   0.218E-02    0.728E-02
RMM:  10    -0.116113508624E+04   -0.48490E-03   -0.49822E-04  9656   0.197E-02    0.585E-02
RMM:  11    -0.116113549677E+04   -0.41053E-03   -0.40147E-04  9005   0.190E-02    0.468E-02
RMM:  12    -0.116113582822E+04   -0.33145E-03   -0.38069E-04  8742   0.187E-02    0.390E-02
RMM:  13    -0.116113606200E+04   -0.23378E-03   -0.31158E-04  8324   0.162E-02    0.349E-02
RMM:  14    -0.116113626287E+04   -0.20087E-03   -0.27179E-04  8011   0.152E-02    0.316E-02
RMM:  15    -0.116113644859E+04   -0.18572E-03   -0.27406E-04  7787   0.148E-02    0.288E-02
RMM:  16    -0.116113664643E+04   -0.19784E-03   -0.34035E-04  7761   0.163E-02    0.264E-02
RMM:  17    -0.116113692537E+04   -0.27894E-03   -0.84131E-04  8414   0.263E-02    0.218E-02
RMM:  18    -0.116113719904E+04   -0.27367E-03   -0.17179E-03  9360   0.384E-02    0.163E-02
RMM:  19    -0.116113733251E+04   -0.13348E-03   -0.66505E-04  7975   0.213E-02    0.134E-02
RMM:  20    -0.116113738483E+04   -0.52317E-04   -0.21579E-04  7010   0.125E-02
  12 F= -.11611374E+04 E0= -.11611374E+04  d E =0.185807E+00  mag=    -4.0000
       N       E                     dE             d eps       ncg     rms          rms(c)
DAV:   1    -0.116155076211E+04   -0.41343E+00   -0.97184E+01 12608   0.931E+00    0.319E+00
RMM:   2    -0.116179351167E+04   -0.24275E+00   -0.26783E+00 12317   0.172E+00    0.268E+00
RMM:   3    -0.116178313210E+04    0.10380E-01   -0.14726E-01 13095   0.526E-01    0.161E+00
RMM:   4    -0.116177344006E+04    0.96920E-02   -0.57190E-02 13101   0.225E-01    0.857E-01
RMM:   5    -0.116176887064E+04    0.45694E-02   -0.13880E-02 13867   0.119E-01    0.263E-01
RMM:   6    -0.116176888519E+04   -0.14546E-04   -0.23349E-03 14534   0.422E-02    0.157E-01
RMM:   7    -0.116176889479E+04   -0.96052E-05   -0.61169E-04 11636   0.222E-02    0.800E-02
RMM:   8    -0.116176894135E+04   -0.46557E-04   -0.24133E-04  9085   0.167E-02
  13 F= -.11617689E+04 E0= -.11617689E+04  d E =-.631557E+00  mag=    -4.0000
       N       E                     dE             d eps       ncg     rms          rms(c)
DAV:   1    -0.116196091079E+04   -0.19202E+00   -0.27287E+01 12720   0.522E+00    0.186E+00
RMM:   2    -0.116202785745E+04   -0.66947E-01   -0.77352E-01 12313   0.983E-01    0.145E+00
RMM:   3    -0.116202677022E+04    0.10872E-02   -0.52824E-02 13137   0.323E-01    0.885E-01
RMM:   4    -0.116202516710E+04    0.16031E-02   -0.17392E-02 13722   0.128E-01    0.492E-01
RMM:   5    -0.116202400131E+04    0.11658E-02   -0.46053E-03 13786   0.660E-02    0.166E-01
RMM:   6    -0.116202412542E+04   -0.12410E-03   -0.80359E-04 11763   0.260E-02    0.974E-02
RMM:   7    -0.116202422668E+04   -0.10126E-03   -0.25924E-04  9179   0.171E-02    0.574E-02
RMM:   8    -0.116202431551E+04   -0.88826E-04   -0.14707E-04  8201   0.131E-02
  14 F= -.11620243E+04 E0= -.11620243E+04  d E =-.255374E+00  mag=    -4.0000
       N       E                     dE             d eps       ncg     rms          rms(c)
DAV:   1    -0.116207885841E+04   -0.54632E-01   -0.27165E+01 12744   0.537E+00    0.207E+00
RMM:   2    -0.116215075844E+04   -0.71900E-01   -0.80689E-01 12310   0.103E+00    0.185E+00
RMM:   3    -0.116214818110E+04    0.25773E-02   -0.53280E-02 13507   0.331E-01    0.126E+00
RMM:   4    -0.116214702771E+04    0.11534E-02   -0.22244E-02 13735   0.146E-01    0.594E-01
RMM:   5    -0.116214553615E+04    0.14916E-02   -0.56969E-03 14155   0.746E-02    0.186E-01
RMM:   6    -0.116214549946E+04    0.36695E-04   -0.10668E-03 12837   0.293E-02    0.108E-01
RMM:   7    -0.116214556305E+04   -0.63591E-04   -0.29864E-04  9509   0.184E-02    0.596E-02
RMM:   8    -0.116214565141E+04   -0.88366E-04   -0.16107E-04  8102   0.139E-02
  15 F= -.11621457E+04 E0= -.11621457E+04  d E =-.121336E+00  mag=    -4.0000
       N       E                     dE             d eps       ncg     rms          rms(c)
DAV:   1    -0.116213147932E+04    0.14084E-01   -0.12052E+01 12832   0.392E+00    0.122E+00
RMM:   2    -0.116216336623E+04   -0.31887E-01   -0.32829E-01 12340   0.705E-01    0.101E+00
RMM:   3    -0.116216362743E+04   -0.26120E-03   -0.19221E-02 13193   0.238E-01    0.668E-01
RMM:   4    -0.116216327604E+04    0.35140E-03   -0.69378E-03 14925   0.860E-02    0.331E-01
RMM:   5    -0.116216307266E+04    0.20338E-03   -0.22471E-03 14232   0.433E-02    0.997E-02
RMM:   6    -0.116216306070E+04    0.11961E-04   -0.36922E-04 10024   0.207E-02    0.512E-02
RMM:   7    -0.116216310161E+04   -0.40909E-04   -0.16278E-04  8074   0.137E-02    0.335E-02
RMM:   8    -0.116216314744E+04   -0.45833E-04   -0.97617E-05  7505   0.120E-02
  16 F= -.11621631E+04 E0= -.11621631E+04  d E =-.174960E-01  mag=    -4.0000
       N       E                     dE             d eps       ncg     rms          rms(c)
DAV:   1    -0.116216310445E+04   -0.28412E-05   -0.30461E+00 12760   0.168E+00    0.935E-01
RMM:   2    -0.116217108549E+04   -0.79810E-02   -0.10277E-01 12297   0.340E-01    0.922E-01
RMM:   3    -0.116216993166E+04    0.11538E-02   -0.61437E-03 12955   0.946E-02    0.666E-01
RMM:   4    -0.116216991932E+04    0.12338E-04   -0.42328E-03 11882   0.618E-02    0.230E-01
RMM:   5    -0.116216951223E+04    0.40709E-03   -0.87213E-04 10881   0.317E-02    0.778E-02
RMM:   6    -0.116216950227E+04    0.99584E-05   -0.12143E-04  7984   0.125E-02    0.470E-02
RMM:   7    -0.116216951758E+04   -0.15309E-04   -0.37459E-05  7221   0.794E-03    0.264E-02
RMM:   8    -0.116216953911E+04   -0.21529E-04   -0.31303E-05  6908   0.694E-03
  17 F= -.11621695E+04 E0= -.11621695E+04  d E =-.639167E-02  mag=    -4.0000
       N       E                     dE             d eps       ncg     rms          rms(c)
DAV:   1    -0.116216719332E+04    0.23243E-02   -0.83324E+00 12800   0.330E+00    0.849E-01
RMM:   2    -0.116218763935E+04   -0.20446E-01   -0.21201E-01 12398   0.567E-01    0.600E-01
RMM:   3    -0.116218794427E+04   -0.30492E-03   -0.11714E-02 12806   0.199E-01    0.387E-01
RMM:   4    -0.116218762928E+04    0.31499E-03   -0.38281E-03 15161   0.647E-02    0.193E-01
RMM:   5    -0.116218762425E+04    0.50252E-05   -0.10350E-03 13078   0.294E-02    0.603E-02
RMM:   6    -0.116218762697E+04   -0.27111E-05   -0.17744E-04  8212   0.162E-02    0.348E-02
RMM:   7    -0.116218764653E+04   -0.19567E-04   -0.92948E-05  7475   0.113E-02    0.216E-02
RMM:   8    -0.116218766478E+04   -0.18246E-04   -0.58372E-05  7211   0.949E-03
  18 F= -.11621877E+04 E0= -.11621877E+04  d E =-.181257E-01  mag=    -4.0000
       N       E                     dE             d eps       ncg     rms          rms(c)
DAV:   1    -0.116217075020E+04    0.16896E-01   -0.13070E+01 12712   0.417E+00    0.965E-01
RMM:   2    -0.116220160861E+04   -0.30858E-01   -0.32417E-01 12489   0.697E-01    0.607E-01
RMM:   3    -0.116220191165E+04   -0.30304E-03   -0.16964E-02 12894   0.247E-01    0.384E-01
RMM:   4    -0.116220131046E+04    0.60119E-03   -0.53156E-03 15879   0.765E-02    0.165E-01
RMM:   5    -0.116220138584E+04   -0.75374E-04   -0.11687E-03 14518   0.321E-02    0.471E-02
RMM:   6    -0.116220141378E+04   -0.27945E-04   -0.26995E-04  9187   0.177E-02    0.286E-02
RMM:   7    -0.116220144347E+04   -0.29691E-04   -0.18387E-04  8166   0.129E-02    0.180E-02
RMM:   8    -0.116220146172E+04   -0.18252E-04   -0.95469E-05  7530   0.108E-02
  19 F= -.11622015E+04 E0= -.11622015E+04  d E =-.137969E-01  mag=    -4.0000
       N       E                     dE             d eps       ncg     rms          rms(c)
DAV:   1    -0.116220196819E+04   -0.52472E-03   -0.13698E+00 13080   0.135E+00    0.265E-01
RMM:   2    -0.116220497549E+04   -0.30073E-02   -0.33980E-02 12527   0.224E-01    0.181E-01
RMM:   3    -0.116220493710E+04    0.38388E-04   -0.17703E-03 12442   0.769E-02    0.118E-01
RMM:   4    -0.116220487970E+04    0.57398E-04   -0.56870E-04 11128   0.260E-02    0.583E-02
RMM:   5    -0.116220488523E+04   -0.55266E-05   -0.13325E-04  7612   0.161E-02    0.188E-02
RMM:   6    -0.116220489510E+04   -0.98638E-05   -0.50708E-05  7172   0.987E-03    0.149E-02
RMM:   7    -0.116220490462E+04   -0.95240E-05   -0.33977E-05  6973   0.826E-03    0.123E-02
RMM:   8    -0.116220491545E+04   -0.10830E-04   -0.24461E-05  6809   0.640E-03
  20 F= -.11622049E+04 E0= -.11622049E+04  d E =-.345373E-02  mag=    -4.0000
       N       E                     dE             d eps       ncg     rms          rms(c)
DAV:   1    -0.116220489507E+04    0.95447E-05   -0.14696E+00 12896   0.139E+00    0.251E-01
RMM:   2    -0.116220808177E+04   -0.31867E-02   -0.35437E-02 12477   0.229E-01    0.164E-01
RMM:   3    -0.116220805637E+04    0.25398E-04   -0.18268E-03 12178   0.802E-02    0.110E-01
RMM:   4    -0.116220799741E+04    0.58968E-04   -0.56612E-04 10688   0.268E-02    0.592E-02
RMM:   5    -0.116220800582E+04   -0.84091E-05   -0.99291E-05  7354   0.153E-02    0.196E-02
RMM:   6    -0.116220801691E+04   -0.11094E-04   -0.47040E-05  7158   0.943E-03    0.144E-02
RMM:   7    -0.116220802326E+04   -0.63532E-05   -0.25169E-05  6885   0.763E-03    0.135E-02
RMM:   8    -0.116220803175E+04   -0.84886E-05   -0.19929E-05  6671   0.624E-03
  21 F= -.11622080E+04 E0= -.11622080E+04  d E =-.311630E-02  mag=    -4.0000
       N       E                     dE             d eps       ncg     rms          rms(c)
DAV:   1    -0.116220577745E+04    0.22458E-02   -0.26773E+00 12848   0.187E+00    0.330E-01
RMM:   2    -0.116221156952E+04   -0.57921E-02   -0.63676E-02 12454   0.305E-01    0.214E-01
RMM:   3    -0.116221152707E+04    0.42449E-04   -0.32501E-03 12444   0.108E-01    0.142E-01
RMM:   4    -0.116221141315E+04    0.11393E-03   -0.10081E-03 12612   0.343E-02    0.681E-02
RMM:   5    -0.116221142626E+04   -0.13108E-04   -0.16855E-04  7749   0.171E-02    0.213E-02
RMM:   6    -0.116221143777E+04   -0.11517E-04   -0.58807E-05  7247   0.107E-02    0.153E-02
RMM:   7    -0.116221144786E+04   -0.10090E-04   -0.38518E-05  7054   0.876E-03    0.131E-02
RMM:   8    -0.116221145808E+04   -0.10219E-04   -0.27530E-05  6739   0.677E-03
  22 F= -.11622115E+04 E0= -.11622115E+04  d E =-.342633E-02  mag=    -4.0000
       N       E                     dE             d eps       ncg     rms          rms(c)
DAV:   1    -0.116220834236E+04    0.31055E-02   -0.28740E+00 12800   0.193E+00    0.333E-01
RMM:   2    -0.116221456241E+04   -0.62201E-02   -0.67941E-02 12499   0.315E-01    0.213E-01
RMM:   3    -0.116221452247E+04    0.39946E-04   -0.34727E-03 12538   0.111E-01    0.143E-01
RMM:   4    -0.116221440306E+04    0.11941E-03   -0.10424E-03 12659   0.357E-02    0.763E-02
RMM:   5    -0.116221441537E+04   -0.12307E-04   -0.16795E-04  7765   0.172E-02    0.240E-02
RMM:   6    -0.116221442961E+04   -0.14242E-04   -0.63013E-05  7257   0.114E-02    0.170E-02
RMM:   7    -0.116221443824E+04   -0.86314E-05   -0.37779E-05  7058   0.898E-03    0.157E-02
RMM:   8    -0.116221444882E+04   -0.10582E-04   -0.28380E-05  6850   0.729E-03
  23 F= -.11622144E+04 E0= -.11622144E+04  d E =-.299074E-02  mag=    -4.0000
       N       E                     dE             d eps       ncg     rms          rms(c)
DAV:   1    -0.116221183676E+04    0.26015E-02   -0.22415E+00 12880   0.170E+00    0.284E-01
RMM:   2    -0.116221667749E+04   -0.48407E-02   -0.52763E-02 12451   0.276E-01    0.181E-01
RMM:   3    -0.116221664979E+04    0.27706E-04   -0.26943E-03 12409   0.979E-02    0.122E-01
RMM:   4    -0.116221656673E+04    0.83062E-04   -0.81113E-04 11880   0.315E-02    0.664E-02
RMM:   5    -0.116221657589E+04   -0.91647E-05   -0.12927E-04  7534   0.162E-02    0.213E-02
RMM:   6    -0.116221658982E+04   -0.13930E-04   -0.54448E-05  7208   0.105E-02    0.166E-02
RMM:   7    -0.116221659796E+04   -0.81439E-05   -0.31328E-05  6977   0.838E-03    0.151E-02
RMM:   8    -0.116221661021E+04   -0.12246E-04   -0.25681E-05  6797   0.689E-03
  24 F= -.11622166E+04 E0= -.11622166E+04  d E =-.216139E-02  mag=    -4.0000
       N       E                     dE             d eps       ncg     rms          rms(c)
DAV:   1    -0.116221610490E+04    0.49306E-03   -0.77362E-01 12864   0.993E-01    0.161E-01
RMM:   2    -0.116221778519E+04   -0.16803E-02   -0.18210E-02 12489   0.162E-01    0.103E-01
RMM:   3    -0.116221777607E+04    0.91234E-05   -0.91300E-04 10763   0.572E-02    0.703E-02
RMM:   4    -0.116221775553E+04    0.20541E-04   -0.26877E-04  8332   0.193E-02    0.378E-02
RMM:   5    -0.116221776562E+04   -0.10091E-04   -0.56798E-05  7202   0.120E-02    0.157E-02
RMM:   6    -0.116221777549E+04   -0.98669E-05   -0.27421E-05  6938   0.732E-03    0.134E-02
RMM:   7    -0.116221778552E+04   -0.10035E-04   -0.18331E-05  6677   0.607E-03    0.124E-02
RMM:   8    -0.116221779906E+04   -0.13533E-04   -0.15927E-05  6399   0.553E-03
  25 F= -.11622178E+04 E0= -.11622178E+04  d E =-.118885E-02  mag=    -4.0000
       N       E                     dE             d eps       ncg     rms          rms(c)
DAV:   1    -0.116221679661E+04    0.98891E-03   -0.10381E+00 12832   0.115E+00    0.184E-01
RMM:   2    -0.116221903689E+04   -0.22403E-02   -0.24222E-02 12463   0.186E-01    0.116E-01
RMM:   3    -0.116221901962E+04    0.17269E-04   -0.11848E-03 11330   0.640E-02    0.797E-02
RMM:   4    -0.116221898725E+04    0.32372E-04   -0.34220E-04  8852   0.214E-02    0.495E-02
RMM:   5    -0.116221899664E+04   -0.93900E-05   -0.63384E-05  7221   0.128E-02    0.170E-02
RMM:   6    -0.116221900944E+04   -0.12803E-04   -0.34713E-05  7000   0.799E-03    0.137E-02
RMM:   7    -0.116221901824E+04   -0.87937E-05   -0.18704E-05  6707   0.623E-03    0.127E-02
RMM:   8    -0.116221903159E+04   -0.13359E-04   -0.15536E-05  6532   0.575E-03
  26 F= -.11622190E+04 E0= -.11622190E+04  d E =-.123254E-02  mag=    -4.0000
