       N       E                     dE             d eps       ncg     rms          rms(c)
DAV:   1    -0.116514992828E+04   -0.11651E+04   -0.57350E-06  7776   0.478E-03    0.924E-03
RMM:   2    -0.116514992810E+04    0.18079E-06   -0.43225E-06  4810   0.268E-03    0.104E-02
RMM:   3    -0.116514992706E+04    0.10453E-05   -0.56086E-07  2711   0.193E-03    0.174E-03
RMM:   4    -0.116514992705E+04    0.14697E-08   -0.11446E-08  1158   0.181E-03    0.159E-03
RMM:   5    -0.116514992706E+04   -0.66357E-08   -0.17643E-07  1076   0.186E-03    0.365E-04
RMM:   6    -0.116514992706E+04   -0.38999E-08   -0.55187E-08   796   0.181E-03    0.151E-04
RMM:   7    -0.116514992707E+04   -0.10041E-08   -0.21974E-08   607   0.180E-03    0.126E-04
RMM:   8    -0.116514992707E+04   -0.17899E-08   -0.23932E-08   548   0.179E-03
   1 F= -.11651499E+04 E0= -.11651445E+04  d E =-.116515E+04  mag=     2.1768
       N       E                     dE             d eps       ncg     rms          rms(c)
DAV:   1    -0.116514994991E+04   -0.22846E-04   -0.76119E-02 12224   0.318E-01    0.831E-02
RMM:   2    -0.116515006982E+04   -0.11991E-03   -0.24165E-03 12148   0.613E-02    0.807E-02
RMM:   3    -0.116515003826E+04    0.31553E-04   -0.76216E-05  7162   0.131E-02    0.543E-02
RMM:   4    -0.116515001539E+04    0.22875E-04   -0.77502E-05  7053   0.959E-03    0.256E-02
RMM:   5    -0.116515000816E+04    0.72297E-05   -0.17053E-05  6285   0.469E-03    0.992E-03
RMM:   6    -0.116515000811E+04    0.50713E-07   -0.40014E-06  4931   0.251E-03    0.741E-03
RMM:   7    -0.116515000807E+04    0.37660E-07   -0.10359E-06  3437   0.195E-03    0.446E-03
RMM:   8    -0.116515000808E+04   -0.10376E-07   -0.14833E-07  2732   0.183E-03
   2 F= -.11651500E+04 E0= -.11651446E+04  d E =-.810144E-04  mag=     2.1757
       N       E                     dE             d eps       ncg     rms          rms(c)
DAV:   1    -0.116515026055E+04   -0.25247E-03   -0.13250E-02 12224   0.130E-01    0.405E-02
RMM:   2    -0.116515026450E+04   -0.39547E-05   -0.47966E-04 11083   0.265E-02    0.384E-02
RMM:   3    -0.116515025351E+04    0.10987E-04   -0.19232E-05  6271   0.616E-03    0.253E-02
RMM:   4    -0.116515024495E+04    0.85684E-05   -0.28659E-05  6013   0.562E-03    0.110E-02
RMM:   5    -0.116515024316E+04    0.17864E-05   -0.40064E-06  4527   0.251E-03    0.654E-03
RMM:   6    -0.116515024295E+04    0.21368E-06   -0.78528E-08  2151   0.170E-03    0.405E-03
RMM:   7    -0.116515024295E+04   -0.10477E-08   -0.28103E-07  1387   0.180E-03    0.182E-03
RMM:   8    -0.116515024295E+04    0.98953E-09   -0.14107E-07  1115   0.182E-03
   3 F= -.11651502E+04 E0= -.11651449E+04  d E =-.234863E-03  mag=     2.1750
