       N       E                     dE             d eps       ncg     rms          rms(c)
DAV:   1    -0.116516291211E+04   -0.11652E+04   -0.18522E-06  6552   0.162E-03    0.118E-03
RMM:   2    -0.116516291210E+04    0.14421E-07    0.00000E+00  1116   0.819E-04    0.711E-04
RMM:   3    -0.116516291209E+04    0.56316E-08    0.00000E+00   494   0.854E-04    0.286E-04
RMM:   4    -0.116516291209E+04    0.56752E-09    0.00000E+00   385   0.875E-04    0.707E-05
RMM:   5    -0.116516291209E+04    0.87311E-10    0.00000E+00   332   0.882E-04    0.476E-05
RMM:   6    -0.116516291209E+04    0.11642E-09    0.00000E+00   288   0.887E-04    0.298E-05
RMM:   7    -0.116516291209E+04   -0.14552E-10    0.00000E+00   273   0.891E-04    0.716E-06
RMM:   8    -0.116516291209E+04   -0.40745E-09    0.00000E+00   258   0.892E-04
   1 F= -.11651629E+04 E0= -.11651611E+04  d E =-.116516E+04  mag=    -2.0208
       N       E                     dE             d eps       ncg     rms          rms(c)
DAV:   1    -0.116516303411E+04   -0.12202E-03   -0.13559E-01 12544   0.429E-01    0.110E-01
RMM:   2    -0.116516327715E+04   -0.24303E-03   -0.43416E-03 12268   0.822E-02    0.107E-01
RMM:   3    -0.116516322268E+04    0.54472E-04   -0.13642E-04  8012   0.174E-02    0.702E-02
RMM:   4    -0.116516318939E+04    0.33283E-04   -0.11905E-04  7222   0.119E-02    0.383E-02
RMM:   5    -0.116516317471E+04    0.14688E-04   -0.33055E-05  6975   0.636E-03    0.132E-02
RMM:   6    -0.116516317489E+04   -0.18568E-06   -0.70355E-06  5650   0.313E-03    0.993E-03
RMM:   7    -0.116516317492E+04   -0.29060E-07   -0.21047E-06  3979   0.228E-03    0.643E-03
RMM:   8    -0.116516317501E+04   -0.90993E-07   -0.47058E-07  3136   0.207E-03
   2 F= -.11651632E+04 E0= -.11651614E+04  d E =-.262922E-03  mag=    -2.0206
       N       E                     dE             d eps       ncg     rms          rms(c)
DAV:   1    -0.116516349822E+04   -0.32330E-03   -0.24106E-02 12160   0.177E-01    0.518E-02
RMM:   2    -0.116516351858E+04   -0.20357E-04   -0.84503E-04 11434   0.355E-02    0.509E-02
RMM:   3    -0.116516350143E+04    0.17151E-04   -0.30897E-05  6533   0.783E-03    0.330E-02
RMM:   4    -0.116516348963E+04    0.11798E-04   -0.37598E-05  6343   0.650E-03    0.172E-02
RMM:   5    -0.116516348558E+04    0.40495E-05   -0.85334E-06  5637   0.334E-03    0.827E-03
RMM:   6    -0.116516348540E+04    0.18303E-06   -0.59560E-07  2702   0.181E-03    0.529E-03
RMM:   7    -0.116516348544E+04   -0.43714E-07   -0.58376E-07  2582   0.185E-03    0.295E-03
RMM:   8    -0.116516348543E+04    0.90658E-08   -0.13676E-07  1549   0.182E-03
   3 F= -.11651635E+04 E0= -.11651617E+04  d E =-.310419E-03  mag=    -2.0210
