       N       E                     dE             d eps       ncg     rms          rms(c)
DAV:   1    -0.116231533709E+04   -0.11623E+04   -0.11950E-04  9816   0.253E-02    0.428E-02
RMM:   2    -0.116231556705E+04   -0.22996E-03   -0.15126E-04  7213   0.176E-02    0.568E-02
RMM:   3    -0.116231561103E+04   -0.43975E-04   -0.29242E-05  5455   0.593E-03    0.531E-02
RMM:   4    -0.116231550124E+04    0.10978E-03   -0.14189E-05  5390   0.616E-03    0.512E-02
RMM:   5    -0.116231524702E+04    0.25422E-03   -0.86690E-05  6218   0.119E-02    0.512E-02
RMM:   6    -0.116231529635E+04   -0.49325E-04   -0.60500E-06  4582   0.390E-03    0.509E-02
RMM:   7    -0.116231540330E+04   -0.10695E-03   -0.11169E-05  4730   0.469E-03    0.501E-02
RMM:   8    -0.116231599876E+04   -0.59546E-03   -0.49139E-04  7591   0.272E-02    0.494E-02
RMM:   9    -0.116231673649E+04   -0.73773E-03   -0.79532E-04  8256   0.312E-02    0.560E-02
RMM:  10    -0.116231635031E+04    0.38619E-03   -0.10306E-04  6538   0.152E-02    0.559E-02
RMM:  11    -0.116231622386E+04    0.12645E-03   -0.49485E-05  5374   0.746E-03    0.551E-02
RMM:  12    -0.116231581718E+04    0.40668E-03   -0.26323E-04  6812   0.182E-02    0.566E-02
RMM:  13    -0.116231572175E+04    0.95432E-04   -0.22129E-04  6415   0.154E-02
   1 F= -.11623157E+04 E0= -.11623144E+04  d E =-.116232E+04  mag=     5.9744
       N       E                     dE             d eps       ncg     rms          rms(c)
DAV:   1    -0.116229297107E+04    0.22846E-01   -0.36617E+00 12624   0.167E+00    0.138E+00
RMM:   2    -0.116232057029E+04   -0.27599E-01   -0.81909E-02 12406   0.319E-01    0.825E-01
RMM:   3    -0.116232498896E+04   -0.44187E-02   -0.53995E-03 12343   0.117E-01    0.407E-01
RMM:   4    -0.116232631796E+04   -0.13290E-02   -0.20519E-03 11390   0.542E-02    0.224E-01
RMM:   5    -0.116232796429E+04   -0.16463E-02   -0.16441E-03 10375   0.460E-02    0.143E-01
RMM:   6    -0.116232893668E+04   -0.97238E-03   -0.65411E-04  8550   0.272E-02    0.139E-01
RMM:   7    -0.116233033506E+04   -0.13984E-02   -0.73182E-04  8555   0.288E-02    0.139E-01
RMM:   8    -0.116233050960E+04   -0.17455E-03   -0.15485E-04  7516   0.120E-02    0.141E-01
RMM:   9    -0.116232966637E+04    0.84323E-03   -0.18451E-04  7560   0.185E-02    0.140E-01
RMM:  10    -0.116232554379E+04    0.41226E-02   -0.41856E-03 10240   0.766E-02    0.151E-01
RMM:  11    -0.116232075006E+04    0.47937E-02   -0.90760E-03 10790   0.111E-01    0.199E-01
RMM:  12    -0.116232146521E+04   -0.71515E-03   -0.74221E-04  8711   0.260E-02    0.192E-01
RMM:  13    -0.116232241798E+04   -0.95277E-03   -0.25078E-04  7693   0.213E-02    0.176E-01
RMM:  14    -0.116232517827E+04   -0.27603E-02   -0.30580E-03 10023   0.669E-02    0.155E-01
RMM:  15    -0.116232936770E+04   -0.41894E-02   -0.69004E-03 10623   0.985E-02    0.146E-01
RMM:  16    -0.116232943077E+04   -0.63063E-04   -0.56530E-04  8450   0.221E-02
   2 F= -.11623294E+04 E0= -.11623282E+04  d E =-.137090E-01  mag=     5.9749
       N       E                     dE             d eps       ncg     rms          rms(c)
DAV:   1    -0.116233208096E+04   -0.27133E-02   -0.76524E-01 12608   0.907E-01    0.389E-01
RMM:   2    -0.116233534037E+04   -0.32594E-02   -0.21670E-02 12394   0.193E-01    0.296E-01
RMM:   3    -0.116233630214E+04   -0.96177E-03   -0.19758E-03 12200   0.666E-02    0.209E-01
RMM:   4    -0.116233796880E+04   -0.16667E-02   -0.14683E-03 10576   0.429E-02    0.167E-01
RMM:   5    -0.116233961003E+04   -0.16412E-02   -0.10037E-03  9241   0.360E-02    0.156E-01
RMM:   6    -0.116234052904E+04   -0.91901E-03   -0.47815E-04  8187   0.210E-02    0.158E-01
RMM:   7    -0.116233640896E+04    0.41201E-02   -0.26185E-03 10017   0.663E-02    0.155E-01
RMM:   8    -0.116233188963E+04    0.45193E-02   -0.55161E-03 10481   0.879E-02    0.152E-01
RMM:   9    -0.116233108708E+04    0.80255E-03   -0.15749E-03  9290   0.391E-02    0.144E-01
RMM:  10    -0.116232814227E+04    0.29448E-02   -0.38125E-03 10126   0.681E-02    0.139E-01
RMM:  11    -0.116232700515E+04    0.11371E-02   -0.28736E-03  9784   0.567E-02    0.117E-01
RMM:  12    -0.116232583864E+04    0.11665E-02   -0.29633E-03  9908   0.574E-02    0.121E-01
RMM:  13    -0.116232605442E+04   -0.21577E-03   -0.35897E-04  8090   0.153E-02    0.118E-01
RMM:  14    -0.116232787773E+04   -0.18233E-02   -0.26779E-03 10013   0.635E-02    0.106E-01
RMM:  15    -0.116233294943E+04   -0.50717E-02   -0.19660E-02 11293   0.166E-01    0.140E-01
RMM:  16    -0.116233861725E+04   -0.56678E-02   -0.19452E-02 11308   0.157E-01    0.220E-01
RMM:  17    -0.116233731309E+04    0.13042E-02   -0.17882E-03  9642   0.367E-02    0.240E-01
RMM:  18    -0.116233924873E+04   -0.19356E-02   -0.77469E-04  8567   0.300E-02    0.236E-01
RMM:  19    -0.116234563425E+04   -0.63855E-02   -0.66909E-03 10538   0.946E-02    0.229E-01
RMM:  20    -0.116235699975E+04   -0.11365E-01   -0.21815E-02 11354   0.174E-01    0.238E-01
RMM:  21    -0.116236063183E+04   -0.36321E-02   -0.45329E-03 10901   0.661E-02    0.208E-01
RMM:  22    -0.116236111393E+04   -0.48210E-03   -0.47469E-04  8710   0.202E-02    0.212E-01
RMM:  23    -0.116236057780E+04    0.53613E-03   -0.73561E-05  7287   0.134E-02    0.214E-01
RMM:  24    -0.116235839575E+04    0.21821E-02   -0.51217E-04  7974   0.270E-02    0.220E-01
RMM:  25    -0.116235902089E+04   -0.62515E-03   -0.27043E-05  6450   0.814E-03    0.217E-01
RMM:  26    -0.116235973563E+04   -0.71473E-03   -0.64724E-05  6782   0.110E-02    0.200E-01
RMM:  27    -0.116236435367E+04   -0.46180E-02   -0.25195E-03  9826   0.593E-02    0.185E-01
RMM:  28    -0.116236761483E+04   -0.32612E-02   -0.18814E-03  9380   0.464E-02    0.193E-01
RMM:  29    -0.116236678920E+04    0.82563E-03   -0.16131E-04  7538   0.133E-02    0.198E-01
RMM:  30    -0.116236552102E+04    0.12682E-02   -0.15266E-04  6977   0.157E-02    0.196E-01
RMM:  31    -0.116236393451E+04    0.15865E-02   -0.27805E-04  7117   0.188E-02    0.194E-01
RMM:  32    -0.116235306097E+04    0.10874E-01   -0.12185E-02 10975   0.128E-01    0.182E-01
RMM:  33    -0.116234745158E+04    0.56094E-02   -0.85571E-03 10632   0.992E-02    0.179E-01
RMM:  34    -0.116234831867E+04   -0.86709E-03   -0.81783E-04  8740   0.259E-02    0.176E-01
RMM:  35    -0.116234905009E+04   -0.73142E-03   -0.16277E-04  7088   0.181E-02    0.179E-01
RMM:  36    -0.116234876757E+04    0.28252E-03   -0.25682E-05  5845   0.646E-03    0.180E-01
RMM:  37    -0.116234618682E+04    0.25808E-02   -0.10922E-03  8833   0.366E-02    0.179E-01
RMM:  38    -0.116235075682E+04   -0.45700E-02   -0.25217E-03 10005   0.636E-02    0.177E-01
RMM:  39    -0.116236017676E+04   -0.94199E-02   -0.16212E-02 11171   0.149E-01    0.214E-01
RMM:  40    -0.116236774722E+04   -0.75705E-02   -0.14675E-02 11089   0.133E-01
   3 F= -.11623677E+04 E0= -.11623666E+04  d E =-.383164E-01  mag=     5.9767
       N       E                     dE             d eps       ncg     rms          rms(c)
DAV:   1    -0.116236917387E+04   -0.89971E-02   -0.29216E-03 15264   0.602E-02    0.231E-01
RMM:   2    -0.116237413097E+04   -0.49571E-02   -0.26859E-03 10343   0.658E-02    0.238E-01
RMM:   3    -0.116237567505E+04   -0.15441E-02   -0.64785E-04  8263   0.270E-02    0.219E-01
RMM:   4    -0.116237680730E+04   -0.11323E-02   -0.45424E-04  7533   0.174E-02    0.223E-01
RMM:   5    -0.116237636319E+04    0.44411E-03   -0.49847E-05  6275   0.928E-03    0.223E-01
RMM:   6    -0.116238031287E+04   -0.39497E-02   -0.14634E-03  9352   0.466E-02    0.212E-01
RMM:   7    -0.116239247114E+04   -0.12158E-01   -0.15698E-02 11202   0.148E-01    0.212E-01
RMM:   8    -0.116240916769E+04   -0.16697E-01   -0.66225E-02 11927   0.305E-01    0.309E-01
RMM:   9    -0.116241153870E+04   -0.23710E-02   -0.55602E-03 11096   0.623E-02    0.280E-01
RMM:  10    -0.116240240273E+04    0.91360E-02   -0.10539E-02 11041   0.125E-01    0.249E-01
RMM:  11    -0.116239331910E+04    0.90836E-02   -0.96609E-03 10691   0.112E-01    0.284E-01
RMM:  12    -0.116238159359E+04    0.11726E-01   -0.12197E-02 10911   0.122E-01    0.370E-01
RMM:  13    -0.116240365250E+04   -0.22059E-01   -0.26949E-02 11479   0.202E-01    0.195E-01
RMM:  14    -0.116241301972E+04   -0.93672E-02   -0.14468E-02 10977   0.132E-01    0.161E-01
RMM:  15    -0.116241750356E+04   -0.44838E-02   -0.59157E-03 10554   0.749E-02    0.165E-01
RMM:  16    -0.116241825497E+04   -0.75141E-03   -0.85971E-04  9042   0.258E-02    0.170E-01
RMM:  17    -0.116241888096E+04   -0.62599E-03   -0.16997E-04  7368   0.149E-02    0.173E-01
RMM:  18    -0.116241779996E+04    0.10810E-02   -0.17831E-04  7434   0.183E-02    0.168E-01
RMM:  19    -0.116241477881E+04    0.30212E-02   -0.10670E-03  8529   0.361E-02    0.175E-01
RMM:  20    -0.116241018178E+04    0.45970E-02   -0.27689E-03  9616   0.558E-02    0.186E-01
RMM:  21    -0.116240773469E+04    0.24471E-02   -0.15747E-03  8585   0.377E-02    0.189E-01
RMM:  22    -0.116240914219E+04   -0.14075E-02   -0.16066E-04  7114   0.181E-02    0.183E-01
RMM:  23    -0.116242042095E+04   -0.11279E-01   -0.16587E-02 11190   0.149E-01    0.185E-01
RMM:  24    -0.116243016246E+04   -0.97415E-02   -0.22667E-02 11352   0.162E-01    0.209E-01
RMM:  25    -0.116243150924E+04   -0.13468E-02   -0.32772E-03 10487   0.479E-02    0.225E-01
RMM:  26    -0.116243260567E+04   -0.10964E-02   -0.59858E-04  8330   0.237E-02    0.227E-01
RMM:  27    -0.116243263881E+04   -0.33139E-04   -0.19831E-04  7511   0.151E-02
   4 F= -.11624326E+04 E0= -.11624315E+04  d E =-.648916E-01  mag=     5.9775
       N       E                     dE             d eps       ncg     rms          rms(c)
DAV:   1    -0.116243441812E+04   -0.18125E-02   -0.52981E-01 12584   0.745E-01    0.426E-01
RMM:   2    -0.116244056190E+04   -0.61438E-02   -0.14130E-02 12616   0.150E-01    0.272E-01
RMM:   3    -0.116244235523E+04   -0.17933E-02   -0.14615E-03 11036   0.569E-02    0.194E-01
RMM:   4    -0.116244444452E+04   -0.20893E-02   -0.10715E-03  9141   0.367E-02    0.174E-01
RMM:   5    -0.116244682137E+04   -0.23769E-02   -0.12719E-03  9058   0.360E-02    0.165E-01
RMM:   6    -0.116244996947E+04   -0.31481E-02   -0.20475E-03  9322   0.457E-02    0.156E-01
RMM:   7    -0.116246004663E+04   -0.10077E-01   -0.19664E-02 11229   0.153E-01    0.142E-01
RMM:   8    -0.116246847825E+04   -0.84316E-02   -0.22170E-02 11315   0.156E-01    0.152E-01
RMM:   9    -0.116246930250E+04   -0.82426E-03   -0.34035E-03 10510   0.454E-02    0.164E-01
RMM:  10    -0.116246642862E+04    0.28739E-02   -0.17226E-03  9566   0.547E-02    0.159E-01
RMM:  11    -0.116247362665E+04   -0.71980E-02   -0.11108E-02 10948   0.129E-01    0.201E-01
RMM:  12    -0.116247370468E+04   -0.78027E-04   -0.10817E-03  9131   0.379E-02    0.196E-01
RMM:  13    -0.116247751708E+04   -0.38124E-02   -0.35956E-03 10116   0.611E-02    0.224E-01
RMM:  14    -0.116247917627E+04   -0.16592E-02   -0.16543E-03  9170   0.337E-02    0.236E-01
RMM:  15    -0.116247993508E+04   -0.75881E-03   -0.37039E-04  7865   0.164E-02    0.239E-01
RMM:  16    -0.116248009512E+04   -0.16004E-03   -0.69011E-05  6650   0.889E-03    0.241E-01
RMM:  17    -0.116247924708E+04    0.84804E-03   -0.13931E-04  7125   0.143E-02    0.243E-01
RMM:  18    -0.116247937966E+04   -0.13259E-03   -0.99624E-06  5584   0.424E-03    0.243E-01
RMM:  19    -0.116247945078E+04   -0.71115E-04   -0.52157E-06  4525   0.315E-03
   5 F= -.11624795E+04 E0= -.11624783E+04  d E =-.468120E-01  mag=     5.9766
       N       E                     dE             d eps       ncg     rms          rms(c)
DAV:   1    -0.116247914309E+04    0.23657E-03   -0.41106E-01 12736   0.685E-01    0.346E-01
RMM:   2    -0.116248254651E+04   -0.34034E-02   -0.11325E-02 12505   0.136E-01    0.221E-01
RMM:   3    -0.116248367552E+04   -0.11290E-02   -0.10008E-03 10656   0.519E-02    0.162E-01
RMM:   4    -0.116248519348E+04   -0.15180E-02   -0.77713E-04  8823   0.318E-02    0.141E-01
RMM:   5    -0.116248704805E+04   -0.18546E-02   -0.10348E-03  8798   0.321E-02    0.132E-01
RMM:   6    -0.116248952958E+04   -0.24815E-02   -0.17772E-03  9084   0.418E-02    0.125E-01
RMM:   7    -0.116249547625E+04   -0.59467E-02   -0.10308E-02 10680   0.106E-01    0.114E-01
RMM:   8    -0.116250004765E+04   -0.45714E-02   -0.95434E-03 10692   0.970E-02    0.113E-01
RMM:   9    -0.116250034236E+04   -0.29471E-03   -0.13327E-03  9347   0.286E-02    0.120E-01
RMM:  10    -0.116249894299E+04    0.13994E-02   -0.54520E-04  8250   0.296E-02    0.140E-01
RMM:  11    -0.116250185551E+04   -0.29125E-02   -0.21466E-03 10014   0.594E-02    0.175E-01
RMM:  12    -0.116250054608E+04    0.13094E-02   -0.36368E-04  7983   0.244E-02    0.186E-01
RMM:  13    -0.116250069147E+04   -0.14539E-03   -0.75154E-05  7132   0.115E-02    0.210E-01
RMM:  14    -0.116250132863E+04   -0.63716E-03   -0.12526E-04  6937   0.117E-02    0.212E-01
RMM:  15    -0.116250178676E+04   -0.45812E-03   -0.11160E-04  6506   0.852E-03    0.213E-01
RMM:  16    -0.116250236438E+04   -0.57762E-03   -0.14157E-04  6699   0.971E-03    0.212E-01
RMM:  17    -0.116250299938E+04   -0.63500E-03   -0.17598E-04  6704   0.109E-02    0.210E-01
RMM:  18    -0.116250338440E+04   -0.38503E-03   -0.99650E-05  5923   0.732E-03    0.208E-01
RMM:  19    -0.116250375587E+04   -0.37146E-03   -0.71413E-05  5985   0.745E-03    0.208E-01
RMM:  20    -0.116250483579E+04   -0.10799E-02   -0.42089E-04  7635   0.198E-02    0.203E-01
RMM:  21    -0.116250583173E+04   -0.99594E-03   -0.49982E-04  7560   0.201E-02    0.199E-01
RMM:  22    -0.116250639225E+04   -0.56052E-03   -0.25466E-04  6813   0.130E-02    0.199E-01
RMM:  23    -0.116250672986E+04   -0.33762E-03   -0.98408E-05  5872   0.811E-03    0.199E-01
RMM:  24    -0.116250685974E+04   -0.12987E-03   -0.29646E-05  5001   0.498E-03    0.198E-01
RMM:  25    -0.116250717601E+04   -0.31627E-03   -0.56251E-05  5489   0.764E-03    0.198E-01
RMM:  26    -0.116250757024E+04   -0.39423E-03   -0.82297E-05  5934   0.778E-03    0.197E-01
RMM:  27    -0.116250787968E+04   -0.30944E-03   -0.63973E-05  5550   0.580E-03    0.196E-01
RMM:  28    -0.116250817893E+04   -0.29926E-03   -0.51150E-05  5525   0.585E-03    0.195E-01
RMM:  29    -0.116250872485E+04   -0.54592E-03   -0.13154E-04  6388   0.103E-02    0.193E-01
RMM:  30    -0.116250963774E+04   -0.91289E-03   -0.39781E-04  7360   0.177E-02    0.187E-01
RMM:  31    -0.116251024630E+04   -0.60856E-03   -0.27635E-04  6682   0.137E-02    0.185E-01
RMM:  32    -0.116251220100E+04   -0.19547E-02   -0.19135E-03  9104   0.431E-02    0.171E-01
RMM:  33    -0.116251226934E+04   -0.68338E-04   -0.18598E-04  7442   0.127E-02
   6 F= -.11625123E+04 E0= -.11625110E+04  d E =-.328186E-01  mag=     5.9750
       N       E                     dE             d eps       ncg     rms          rms(c)
DAV:   1    -0.116251241438E+04   -0.21338E-03   -0.17296E-01 12688   0.430E-01    0.281E-01
RMM:   2    -0.116251412638E+04   -0.17120E-02   -0.49758E-03 12323   0.923E-02    0.172E-01
RMM:   3    -0.116251469069E+04   -0.56431E-03   -0.47121E-04  8733   0.362E-02    0.116E-01
RMM:   4    -0.116251554091E+04   -0.85023E-03   -0.68417E-04  8238   0.247E-02    0.932E-02
RMM:   5    -0.116251632199E+04   -0.78108E-03   -0.52609E-04  7915   0.204E-02    0.868E-02
RMM:   6    -0.116251704167E+04   -0.71968E-03   -0.44920E-04  7772   0.186E-02    0.829E-02
RMM:   7    -0.116251878905E+04   -0.17474E-02   -0.20840E-03  9237   0.450E-02    0.744E-02
RMM:   8    -0.116252209667E+04   -0.33076E-02   -0.12677E-02 10858   0.117E-01    0.671E-02
RMM:   9    -0.116252271517E+04   -0.61849E-03   -0.15972E-03  9497   0.318E-02    0.640E-02
RMM:  10    -0.116252297819E+04   -0.26302E-03   -0.21827E-04  7542   0.153E-02    0.622E-02
RMM:  11    -0.116252316584E+04   -0.18765E-03   -0.11460E-04  6798   0.980E-03    0.598E-02
RMM:  12    -0.116252491723E+04   -0.17514E-02   -0.46605E-03  9991   0.694E-02    0.582E-02
RMM:  13    -0.116252629666E+04   -0.13794E-02   -0.97456E-03 10620   0.985E-02    0.696E-02
RMM:  14    -0.116252690677E+04   -0.61011E-03   -0.20620E-03  9668   0.370E-02    0.597E-02
RMM:  15    -0.116252711609E+04   -0.20932E-03   -0.49395E-04  8049   0.197E-02    0.593E-02
RMM:  16    -0.116252753786E+04   -0.42178E-03   -0.16749E-03  8787   0.357E-02    0.577E-02
RMM:  17    -0.116252790817E+04   -0.37030E-03   -0.69272E-03 10248   0.816E-02    0.579E-02
RMM:  18    -0.116252824564E+04   -0.33747E-03   -0.39854E-03  9749   0.548E-02    0.343E-02
RMM:  19    -0.116252832212E+04   -0.76482E-04   -0.45744E-04  8233   0.271E-02
   7 F= -.11625283E+04 E0= -.11625270E+04  d E =-.160528E-01  mag=     5.9730
       N       E                     dE             d eps       ncg     rms          rms(c)
DAV:   1    -0.116252696382E+04    0.12818E-02   -0.11171E-01 13024   0.345E-01    0.152E-01
RMM:   2    -0.116252740297E+04   -0.43916E-03   -0.24955E-03 12597   0.625E-02    0.863E-02
RMM:   3    -0.116252744825E+04   -0.45277E-04   -0.12626E-04  7383   0.213E-02    0.425E-02
RMM:   4    -0.116252745132E+04   -0.30679E-05   -0.44127E-05  6997   0.911E-03    0.203E-02
RMM:   5    -0.116252745828E+04   -0.69600E-05   -0.20705E-05  6512   0.589E-03    0.119E-02
RMM:   6    -0.116252746180E+04   -0.35229E-05   -0.67927E-06  5699   0.387E-03    0.851E-03
RMM:   7    -0.116252746437E+04   -0.25684E-05   -0.34441E-06  4141   0.293E-03    0.701E-03
RMM:   8    -0.116252747120E+04   -0.68336E-05   -0.87015E-06  4708   0.350E-03
   8 F= -.11625275E+04 E0= -.11625261E+04  d E =0.850917E-03  mag=     5.9730
       N       E                     dE             d eps       ncg     rms          rms(c)
DAV:   1    -0.116252493406E+04    0.25303E-02   -0.14704E-01 12672   0.391E-01    0.202E-01
RMM:   2    -0.116252561640E+04   -0.68234E-03   -0.32400E-03 12663   0.716E-02    0.112E-01
RMM:   3    -0.116252569583E+04   -0.79434E-04   -0.16562E-04  7604   0.247E-02    0.528E-02
RMM:   4    -0.116252569861E+04   -0.27785E-05   -0.59848E-05  7087   0.105E-02    0.237E-02
RMM:   5    -0.116252570538E+04   -0.67667E-05   -0.23606E-05  6811   0.666E-03    0.135E-02
RMM:   6    -0.116252570927E+04   -0.38886E-05   -0.84564E-06  6118   0.426E-03    0.976E-03
RMM:   7    -0.116252571227E+04   -0.30021E-05   -0.44884E-06  5083   0.332E-03    0.854E-03
RMM:   8    -0.116252571921E+04   -0.69351E-05   -0.91714E-06  4739   0.366E-03
   9 F= -.11625257E+04 E0= -.11625244E+04  d E =0.175200E-02  mag=     5.9729
       N       E                     dE             d eps       ncg     rms          rms(c)
DAV:   1    -0.116252676996E+04   -0.10577E-02   -0.11896E-01 12608   0.350E-01    0.175E-01
RMM:   2    -0.116252730403E+04   -0.53407E-03   -0.24845E-03 12548   0.622E-02    0.940E-02
RMM:   3    -0.116252736543E+04   -0.61399E-04   -0.11841E-04  7154   0.216E-02    0.421E-02
RMM:   4    -0.116252736424E+04    0.11838E-05   -0.37503E-05  6525   0.866E-03    0.177E-02
RMM:   5    -0.116252736588E+04   -0.16373E-05   -0.11363E-05  5899   0.518E-03    0.976E-03
RMM:   6    -0.116252736672E+04   -0.84226E-06   -0.36472E-06  4668   0.323E-03    0.474E-03
RMM:   7    -0.116252736709E+04   -0.36767E-06   -0.13261E-06  3137   0.236E-03    0.358E-03
RMM:   8    -0.116252736764E+04   -0.54641E-06   -0.85461E-07  2471   0.215E-03
  10 F= -.11625274E+04 E0= -.11625260E+04  d E =-.164843E-02  mag=     5.9730
       N       E                     dE             d eps       ncg     rms          rms(c)
DAV:   1    -0.116231501767E+04    0.21235E+00   -0.40962E+01 12552   0.643E+00    0.340E+00
RMM:   2    -0.116251357898E+04   -0.19856E+00   -0.90571E-01 13208   0.120E+00    0.206E+00
RMM:   3    -0.116253781394E+04   -0.24235E-01   -0.51078E-02 13944   0.358E-01    0.825E-01
RMM:   4    -0.116253715996E+04    0.65398E-03   -0.10504E-02 15181   0.122E-01    0.436E-01
RMM:   5    -0.116253817064E+04   -0.10107E-02   -0.58174E-03 14202   0.742E-02    0.150E-01
RMM:   6    -0.116253869521E+04   -0.52456E-03   -0.92692E-04 11370   0.366E-02    0.114E-01
RMM:   7    -0.116253910846E+04   -0.41326E-03   -0.43836E-04  9244   0.210E-02    0.915E-02
RMM:   8    -0.116254014031E+04   -0.10319E-02   -0.11163E-03  9470   0.358E-02    0.700E-02
RMM:   9    -0.116254061438E+04   -0.47406E-03   -0.56881E-04  8472   0.227E-02    0.657E-02
RMM:  10    -0.116254118386E+04   -0.56948E-03   -0.60324E-04  8425   0.242E-02    0.575E-02
RMM:  11    -0.116254260277E+04   -0.14189E-02   -0.50753E-03 10236   0.752E-02    0.421E-02
RMM:  12    -0.116254292423E+04   -0.32146E-03   -0.96272E-04  8948   0.261E-02    0.380E-02
RMM:  13    -0.116254318744E+04   -0.26321E-03   -0.42484E-04  7985   0.190E-02    0.327E-02
RMM:  14    -0.116254359766E+04   -0.41022E-03   -0.12600E-03  8667   0.336E-02    0.267E-02
RMM:  15    -0.116254388838E+04   -0.29072E-03   -0.12419E-03  8790   0.320E-02    0.200E-02
RMM:  16    -0.116254406460E+04   -0.17622E-03   -0.72851E-04  8302   0.220E-02    0.157E-02
RMM:  17    -0.116254416860E+04   -0.10400E-03   -0.39257E-04  7705   0.164E-02    0.124E-02
RMM:  18    -0.116254423563E+04   -0.67033E-04   -0.24973E-04  7154   0.124E-02
  11 F= -.11625442E+04 E0= -.11625429E+04  d E =-.168680E-01  mag=     5.9729
       N       E                     dE             d eps       ncg     rms          rms(c)
DAV:   1    -0.116254604200E+04   -0.18734E-02   -0.84563E-01 12688   0.102E+00    0.329E-01
RMM:   2    -0.116254833566E+04   -0.22937E-02   -0.22097E-02 12882   0.197E-01    0.205E-01
RMM:   3    -0.116254844007E+04   -0.10441E-03   -0.15345E-03 12244   0.603E-02    0.129E-01
RMM:   4    -0.116254836832E+04    0.71753E-04   -0.27438E-04  8460   0.212E-02    0.637E-02
RMM:   5    -0.116254836969E+04   -0.13768E-05   -0.11271E-04  7467   0.141E-02    0.225E-02
RMM:   6    -0.116254837661E+04   -0.69177E-05   -0.30275E-05  7052   0.915E-03    0.153E-02
RMM:   7    -0.116254838339E+04   -0.67796E-05   -0.18631E-05  6845   0.566E-03    0.118E-02
RMM:   8    -0.116254839155E+04   -0.81560E-05   -0.13060E-05  6572   0.516E-03
  12 F= -.11625484E+04 E0= -.11625470E+04  d E =-.415592E-02  mag=     5.9723
       N       E                     dE             d eps       ncg     rms          rms(c)
DAV:   1    -0.116254716874E+04    0.12147E-02   -0.15355E+00 12608   0.133E+00    0.463E-01
RMM:   2    -0.116255232934E+04   -0.51606E-02   -0.36162E-02 12955   0.247E-01    0.262E-01
RMM:   3    -0.116255282089E+04   -0.49155E-03   -0.24646E-03 12771   0.771E-02    0.133E-01
RMM:   4    -0.116255274207E+04    0.78826E-04   -0.40076E-04  9175   0.248E-02    0.710E-02
RMM:   5    -0.116255273727E+04    0.47963E-05   -0.18908E-04  7735   0.170E-02    0.240E-02
RMM:   6    -0.116255274423E+04   -0.69629E-05   -0.42399E-05  7107   0.111E-02    0.131E-02
RMM:   7    -0.116255274951E+04   -0.52794E-05   -0.24566E-05  6961   0.653E-03    0.114E-02
RMM:   8    -0.116255275437E+04   -0.48529E-05   -0.13926E-05  6735   0.588E-03
  13 F= -.11625528E+04 E0= -.11625514E+04  d E =-.436282E-02  mag=     5.9723
       N       E                     dE             d eps       ncg     rms          rms(c)
DAV:   1    -0.116254825055E+04    0.44990E-02   -0.24764E+00 12624   0.169E+00    0.567E-01
RMM:   2    -0.116255621789E+04   -0.79673E-02   -0.57568E-02 12983   0.310E-01    0.320E-01
RMM:   3    -0.116255693416E+04   -0.71627E-03   -0.39014E-03 13256   0.960E-02    0.166E-01
RMM:   4    -0.116255681382E+04    0.12034E-03   -0.67109E-04 10803   0.302E-02    0.873E-02
RMM:   5    -0.116255680575E+04    0.80708E-05   -0.28856E-04  8507   0.203E-02    0.308E-02
RMM:   6    -0.116255681698E+04   -0.11232E-04   -0.59303E-05  7231   0.125E-02    0.164E-02
RMM:   7    -0.116255682620E+04   -0.92169E-05   -0.34672E-05  7071   0.786E-03    0.142E-02
RMM:   8    -0.116255683529E+04   -0.90870E-05   -0.22097E-05  6966   0.693E-03
  14 F= -.11625568E+04 E0= -.11625554E+04  d E =-.408092E-02  mag=     5.9719
       N       E                     dE             d eps       ncg     rms          rms(c)
DAV:   1    -0.116255116561E+04    0.56606E-02   -0.24798E+00 12616   0.171E+00    0.558E-01
RMM:   2    -0.116255908019E+04   -0.79146E-02   -0.58240E-02 13020   0.313E-01    0.313E-01
RMM:   3    -0.116255976104E+04   -0.68085E-03   -0.38195E-03 13289   0.974E-02    0.163E-01
RMM:   4    -0.116255965023E+04    0.11081E-03   -0.67830E-04 10976   0.308E-02    0.846E-02
RMM:   5    -0.116255964792E+04    0.23070E-05   -0.28259E-04  8327   0.203E-02    0.309E-02
RMM:   6    -0.116255966097E+04   -0.13044E-04   -0.62413E-05  7227   0.128E-02    0.174E-02
RMM:   7    -0.116255967118E+04   -0.10215E-04   -0.37185E-05  7064   0.816E-03    0.153E-02
RMM:   8    -0.116255968344E+04   -0.12254E-04   -0.25762E-05  6971   0.741E-03
  15 F= -.11625597E+04 E0= -.11625583E+04  d E =-.284815E-02  mag=     5.9717
       N       E                     dE             d eps       ncg     rms          rms(c)
DAV:   1    -0.116255592784E+04    0.37433E-02   -0.17573E+00 12632   0.147E+00    0.429E-01
RMM:   2    -0.116256120677E+04   -0.52789E-02   -0.42026E-02 13040   0.267E-01    0.244E-01
RMM:   3    -0.116256159808E+04   -0.39131E-03   -0.26645E-03 12952   0.832E-02    0.131E-01
RMM:   4    -0.116256152205E+04    0.76036E-04   -0.47400E-04  9807   0.267E-02    0.691E-02
RMM:   5    -0.116256152108E+04    0.96481E-06   -0.19425E-04  7678   0.178E-02    0.256E-02
RMM:   6    -0.116256153172E+04   -0.10635E-04   -0.51850E-05  7156   0.119E-02    0.143E-02
RMM:   7    -0.116256153926E+04   -0.75433E-05   -0.31842E-05  7005   0.770E-03    0.127E-02
RMM:   8    -0.116256154757E+04   -0.83117E-05   -0.19778E-05  6891   0.673E-03
  16 F= -.11625615E+04 E0= -.11625601E+04  d E =-.186414E-02  mag=     5.9712
       N       E                     dE             d eps       ncg     rms          rms(c)
DAV:   1    -0.116254252940E+04    0.19010E-01   -0.28700E+00 12520   0.159E+00    0.106E+00
RMM:   2    -0.116256029397E+04   -0.17765E-01   -0.59873E-02 12583   0.302E-01    0.578E-01
RMM:   3    -0.116256296423E+04   -0.26703E-02   -0.43063E-03 12399   0.107E-01    0.255E-01
RMM:   4    -0.116256300499E+04   -0.40761E-04   -0.88064E-04 10735   0.353E-02    0.115E-01
RMM:   5    -0.116256309560E+04   -0.90612E-04   -0.30922E-04  8262   0.223E-02    0.389E-02
RMM:   6    -0.116256312952E+04   -0.33922E-04   -0.56938E-05  7121   0.115E-02    0.297E-02
RMM:   7    -0.116256316581E+04   -0.36289E-04   -0.38409E-05  6988   0.803E-03    0.252E-02
RMM:   8    -0.116256323311E+04   -0.67305E-04   -0.69640E-05  6969   0.978E-03
  17 F= -.11625632E+04 E0= -.11625619E+04  d E =-.168554E-02  mag=     5.9728
       N       E                     dE             d eps       ncg     rms          rms(c)
DAV:   1    -0.116255757053E+04    0.55953E-02   -0.33185E+00 12608   0.205E+00    0.492E-01
RMM:   2    -0.116256617707E+04   -0.86065E-02   -0.81330E-02 12943   0.376E-01    0.299E-01
RMM:   3    -0.116256664572E+04   -0.46865E-03   -0.54359E-03 13134   0.117E-01    0.185E-01
RMM:   4    -0.116256650498E+04    0.14074E-03   -0.88334E-04 12340   0.357E-02    0.106E-01
RMM:   5    -0.116256650149E+04    0.34891E-05   -0.41954E-04  9714   0.231E-02    0.330E-02
RMM:   6    -0.116256651797E+04   -0.16475E-04   -0.67863E-05  7226   0.132E-02    0.203E-02
RMM:   7    -0.116256653535E+04   -0.17388E-04   -0.42808E-05  7069   0.832E-03    0.175E-02
RMM:   8    -0.116256655089E+04   -0.15532E-04   -0.26062E-05  6912   0.745E-03
  18 F= -.11625666E+04 E0= -.11625652E+04  d E =-.331777E-02  mag=     5.9718
       N       E                     dE             d eps       ncg     rms          rms(c)
DAV:   1    -0.116256597166E+04    0.56369E-03   -0.63293E-01 12728   0.889E-01    0.229E-01
RMM:   2    -0.116256768227E+04   -0.17106E-02   -0.15266E-02 13061   0.159E-01    0.134E-01
RMM:   3    -0.116256776415E+04   -0.81881E-04   -0.87718E-04 10544   0.483E-02    0.771E-02
RMM:   4    -0.116256774076E+04    0.23389E-04   -0.15617E-04  7485   0.173E-02    0.406E-02
RMM:   5    -0.116256775358E+04   -0.12817E-04   -0.83442E-05  7188   0.117E-02    0.176E-02
RMM:   6    -0.116256776307E+04   -0.94859E-05   -0.26904E-05  6964   0.818E-03    0.139E-02
RMM:   7    -0.116256776933E+04   -0.62680E-05   -0.16202E-05  6787   0.539E-03    0.130E-02
RMM:   8    -0.116256777939E+04   -0.10059E-04   -0.12669E-05  6413   0.525E-03
  19 F= -.11625678E+04 E0= -.11625664E+04  d E =-.122851E-02  mag=     5.9719
