       N       E                     dE             d eps       ncg     rms          rms(c)
DAV:   1    -0.116340727100E+04   -0.11634E+04   -0.87536E-06  7704   0.891E-03    0.106E-02
RMM:   2    -0.116340727106E+04   -0.56054E-07   -0.55642E-06  5644   0.377E-03    0.133E-02
RMM:   3    -0.116340727114E+04   -0.84328E-07   -0.18932E-06  4063   0.246E-03    0.218E-03
RMM:   4    -0.116340727127E+04   -0.12718E-06   -0.10618E-06  2975   0.222E-03    0.334E-03
RMM:   5    -0.116340727134E+04   -0.67914E-07   -0.60286E-07  2415   0.208E-03    0.116E-03
RMM:   6    -0.116340727140E+04   -0.58557E-07   -0.24138E-07  1691   0.197E-03    0.987E-04
RMM:   7    -0.116340727146E+04   -0.64989E-07   -0.22410E-07  1653   0.194E-03    0.142E-03
RMM:   8    -0.116340727151E+04   -0.47192E-07   -0.12579E-07  1210   0.191E-03
   1 F= -.11634073E+04 E0= -.11634070E+04  d E =-.116341E+04  mag=    -2.0022
       N       E                     dE             d eps       ncg     rms          rms(c)
DAV:   1    -0.116340733718E+04   -0.65716E-04   -0.13333E-01 12504   0.424E-01    0.116E-01
RMM:   2    -0.116340754469E+04   -0.20751E-03   -0.42689E-03 12232   0.830E-02    0.116E-01
RMM:   3    -0.116340749624E+04    0.48454E-04   -0.16222E-04  7706   0.268E-02    0.794E-02
RMM:   4    -0.116340745261E+04    0.43627E-04   -0.15274E-04  7385   0.144E-02    0.405E-02
RMM:   5    -0.116340744403E+04    0.85829E-05   -0.32181E-05  6977   0.837E-03    0.136E-02
RMM:   6    -0.116340744422E+04   -0.19574E-06   -0.10155E-05  6290   0.457E-03    0.116E-02
RMM:   7    -0.116340744454E+04   -0.31501E-06   -0.41550E-06  5071   0.339E-03    0.750E-03
RMM:   8    -0.116340744485E+04   -0.31656E-06   -0.28320E-06  4860   0.262E-03
   2 F= -.11634074E+04 E0= -.11634072E+04  d E =-.173344E-03  mag=    -2.0022
       N       E                     dE             d eps       ncg     rms          rms(c)
DAV:   1    -0.116340778561E+04   -0.34107E-03   -0.27343E-02 12160   0.190E-01    0.596E-02
RMM:   2    -0.116340780450E+04   -0.18890E-04   -0.99764E-04 11786   0.399E-02    0.645E-02
RMM:   3    -0.116340778774E+04    0.16764E-04   -0.40085E-05  6617   0.129E-02    0.452E-02
RMM:   4    -0.116340777227E+04    0.15470E-04   -0.49976E-05  6693   0.809E-03    0.270E-02
RMM:   5    -0.116340776885E+04    0.34213E-05   -0.11140E-05  6069   0.518E-03    0.123E-02
RMM:   6    -0.116340776863E+04    0.21611E-06   -0.35740E-06  4828   0.291E-03    0.902E-03
RMM:   7    -0.116340776860E+04    0.25335E-07   -0.13257E-06  3163   0.244E-03    0.552E-03
RMM:   8    -0.116340776860E+04    0.83528E-08   -0.29888E-07  2104   0.194E-03
   3 F= -.11634078E+04 E0= -.11634075E+04  d E =-.323741E-03  mag=    -2.0022
