       N       E                     dE             d eps       ncg     rms          rms(c)
DAV:   1    -0.116027899742E+04   -0.11603E+04   -0.61979E-06  7576   0.549E-03    0.678E-03
RMM:   2    -0.116027899837E+04   -0.95229E-06   -0.40097E-06  5333   0.358E-03    0.825E-03
RMM:   3    -0.116027899872E+04   -0.34527E-06   -0.17177E-06  2910   0.206E-03    0.297E-03
RMM:   4    -0.116027899906E+04   -0.34556E-06   -0.10325E-06  2492   0.217E-03    0.248E-03
RMM:   5    -0.116027899940E+04   -0.33494E-06   -0.57104E-07  1963   0.188E-03    0.311E-03
RMM:   6    -0.116027900027E+04   -0.87029E-06   -0.10609E-06  2312   0.212E-03    0.376E-03
RMM:   7    -0.116027900117E+04   -0.90878E-06   -0.14114E-06  2572   0.211E-03    0.326E-03
RMM:   8    -0.116027900199E+04   -0.81085E-06   -0.12983E-06  2560   0.213E-03
   1 F= -.11602790E+04 E0= -.11602790E+04  d E =-.116028E+04  mag=     8.0000
       N       E                     dE             d eps       ncg     rms          rms(c)
DAV:   1    -0.116027961497E+04   -0.61379E-03   -0.21560E-01 12352   0.519E-01    0.948E-02
RMM:   2    -0.116028009188E+04   -0.47692E-03   -0.51372E-03 12692   0.868E-02    0.612E-02
RMM:   3    -0.116028008182E+04    0.10057E-04   -0.21398E-04  7737   0.273E-02    0.388E-02
RMM:   4    -0.116028007027E+04    0.11553E-04   -0.57548E-05  6880   0.102E-02    0.204E-02
RMM:   5    -0.116028007127E+04   -0.10015E-05   -0.18984E-05  6390   0.631E-03    0.737E-03
RMM:   6    -0.116028007254E+04   -0.12696E-05   -0.75737E-06  5657   0.423E-03    0.497E-03
RMM:   7    -0.116028007328E+04   -0.73516E-06   -0.40379E-06  4488   0.322E-03    0.389E-03
RMM:   8    -0.116028007406E+04   -0.78106E-06   -0.26164E-06  3875   0.277E-03
   2 F= -.11602801E+04 E0= -.11602801E+04  d E =-.107207E-02  mag=     8.0000
       N       E                     dE             d eps       ncg     rms          rms(c)
DAV:   1    -0.116028048564E+04   -0.41237E-03   -0.32574E-02 12176   0.201E-01    0.398E-02
RMM:   2    -0.116028054940E+04   -0.63760E-04   -0.79686E-04 11016   0.347E-02    0.291E-02
RMM:   3    -0.116028054682E+04    0.25804E-05   -0.38266E-05  6564   0.122E-02    0.182E-02
RMM:   4    -0.116028054409E+04    0.27344E-05   -0.17359E-05  6273   0.531E-03    0.111E-02
RMM:   5    -0.116028054404E+04    0.45751E-07   -0.48746E-06  5160   0.336E-03    0.570E-03
RMM:   6    -0.116028054439E+04   -0.35277E-06   -0.21941E-06  3389   0.255E-03    0.352E-03
RMM:   7    -0.116028054463E+04   -0.23573E-06   -0.10261E-06  2543   0.220E-03    0.239E-03
RMM:   8    -0.116028054493E+04   -0.29980E-06   -0.68539E-07  2215   0.211E-03
   3 F= -.11602805E+04 E0= -.11602805E+04  d E =-.470873E-03  mag=     8.0000
       N       E                     dE             d eps       ncg     rms          rms(c)
DAV:   1    -0.116028099278E+04   -0.44815E-03   -0.58979E-02 12160   0.271E-01    0.476E-02
RMM:   2    -0.116028112291E+04   -0.13012E-03   -0.13619E-03 11626   0.451E-02    0.293E-02
RMM:   3    -0.116028112271E+04    0.19382E-06   -0.62049E-05  6762   0.162E-02    0.187E-02
RMM:   4    -0.116028112142E+04    0.12907E-05   -0.20386E-05  6396   0.581E-03    0.103E-02
RMM:   5    -0.116028112196E+04   -0.54268E-06   -0.58272E-06  5178   0.354E-03    0.377E-03
RMM:   6    -0.116028112240E+04   -0.44110E-06   -0.25536E-06  3769   0.270E-03    0.244E-03
RMM:   7    -0.116028112263E+04   -0.22269E-06   -0.11400E-06  2656   0.224E-03    0.185E-03
RMM:   8    -0.116028112287E+04   -0.24094E-06   -0.68592E-07  2253   0.211E-03
   4 F= -.11602811E+04 E0= -.11602811E+04  d E =-.577938E-03  mag=     8.0000
       N       E                     dE             d eps       ncg     rms          rms(c)
DAV:   1    -0.116028163261E+04   -0.50998E-03   -0.90742E-02 12160   0.336E-01    0.596E-02
RMM:   2    -0.116028183569E+04   -0.20308E-03   -0.21195E-03 12299   0.557E-02    0.370E-02
RMM:   3    -0.116028183334E+04    0.23473E-05   -0.87597E-05  6917   0.191E-02    0.232E-02
RMM:   4    -0.116028183061E+04    0.27298E-05   -0.27291E-05  6607   0.674E-03    0.124E-02
RMM:   5    -0.116028183138E+04   -0.77201E-06   -0.79212E-06  5912   0.404E-03    0.447E-03
RMM:   6    -0.116028183193E+04   -0.54702E-06   -0.33899E-06  4463   0.295E-03    0.263E-03
RMM:   7    -0.116028183221E+04   -0.28638E-06   -0.16309E-06  3366   0.236E-03    0.210E-03
RMM:   8    -0.116028183246E+04   -0.25021E-06   -0.90488E-07  2655   0.212E-03
   5 F= -.11602818E+04 E0= -.11602818E+04  d E =-.709596E-03  mag=     8.0000
       N       E                     dE             d eps       ncg     rms          rms(c)
DAV:   1    -0.116028235051E+04   -0.51830E-03   -0.93444E-02 12160   0.341E-01    0.600E-02
RMM:   2    -0.116028255922E+04   -0.20870E-03   -0.21980E-03 12365   0.568E-02    0.381E-02
RMM:   3    -0.116028255602E+04    0.31938E-05   -0.89440E-05  6951   0.190E-02    0.241E-02
RMM:   4    -0.116028255293E+04    0.30964E-05   -0.28591E-05  6652   0.684E-03    0.128E-02
RMM:   5    -0.116028255360E+04   -0.67891E-06   -0.83873E-06  5970   0.414E-03    0.437E-03
RMM:   6    -0.116028255418E+04   -0.57591E-06   -0.35812E-06  4576   0.298E-03    0.270E-03
RMM:   7    -0.116028255448E+04   -0.29938E-06   -0.17133E-06  3473   0.241E-03    0.216E-03
RMM:   8    -0.116028255476E+04   -0.27708E-06   -0.96390E-07  2739   0.212E-03
   6 F= -.11602826E+04 E0= -.11602826E+04  d E =-.722293E-03  mag=     8.0000
       N       E                     dE             d eps       ncg     rms          rms(c)
DAV:   1    -0.116028315185E+04   -0.59737E-03   -0.42575E-01 12456   0.728E-01    0.125E-01
RMM:   2    -0.116028410753E+04   -0.95568E-03   -0.99146E-03 12777   0.120E-01    0.782E-02
RMM:   3    -0.116028409739E+04    0.10139E-04   -0.43226E-04  8819   0.377E-02    0.496E-02
RMM:   4    -0.116028407869E+04    0.18703E-04   -0.93617E-05  7149   0.133E-02    0.244E-02
RMM:   5    -0.116028408184E+04   -0.31463E-05   -0.32444E-05  6846   0.841E-03    0.851E-03
RMM:   6    -0.116028408380E+04   -0.19607E-05   -0.13470E-05  6525   0.552E-03    0.561E-03
RMM:   7    -0.116028408481E+04   -0.10103E-05   -0.73721E-06  5477   0.410E-03    0.452E-03
RMM:   8    -0.116028408556E+04   -0.74662E-06   -0.44089E-06  4729   0.337E-03
   7 F= -.11602841E+04 E0= -.11602841E+04  d E =-.153080E-02  mag=     8.0000
       N       E                     dE             d eps       ncg     rms          rms(c)
DAV:   1    -0.116028443188E+04   -0.34707E-03   -0.77610E-01 12456   0.983E-01    0.168E-01
RMM:   2    -0.116028617046E+04   -0.17386E-02   -0.18078E-02 12774   0.161E-01    0.105E-01
RMM:   3    -0.116028615184E+04    0.18618E-04   -0.81777E-04 10571   0.506E-02    0.662E-02
RMM:   4    -0.116028611485E+04    0.36984E-04   -0.17180E-04  7473   0.171E-02    0.322E-02
RMM:   5    -0.116028612034E+04   -0.54903E-05   -0.51923E-05  7045   0.108E-02    0.111E-02
RMM:   6    -0.116028612361E+04   -0.32638E-05   -0.21777E-05  6809   0.689E-03    0.816E-03
RMM:   7    -0.116028612532E+04   -0.17071E-05   -0.12227E-05  6286   0.526E-03    0.656E-03
RMM:   8    -0.116028612666E+04   -0.13410E-05   -0.80448E-06  5680   0.419E-03
   8 F= -.11602861E+04 E0= -.11602861E+04  d E =-.204110E-02  mag=     8.0000
       N       E                     dE             d eps       ncg     rms          rms(c)
DAV:   1    -0.116028646397E+04   -0.33865E-03   -0.78650E-01 12536   0.989E-01    0.170E-01
RMM:   2    -0.116028823903E+04   -0.17751E-02   -0.18363E-02 12794   0.162E-01    0.106E-01
RMM:   3    -0.116028821715E+04    0.21889E-04   -0.80293E-04 10584   0.494E-02    0.663E-02
RMM:   4    -0.116028817979E+04    0.37353E-04   -0.16824E-04  7459   0.170E-02    0.328E-02
RMM:   5    -0.116028818575E+04   -0.59581E-05   -0.52385E-05  7064   0.108E-02    0.125E-02
RMM:   6    -0.116028818925E+04   -0.34955E-05   -0.22379E-05  6815   0.698E-03    0.864E-03
RMM:   7    -0.116028819120E+04   -0.19583E-05   -0.12720E-05  6286   0.540E-03    0.701E-03
RMM:   8    -0.116028819281E+04   -0.16063E-05   -0.85709E-06  5735   0.430E-03
   9 F= -.11602882E+04 E0= -.11602882E+04  d E =-.206615E-02  mag=     8.0000
       N       E                     dE             d eps       ncg     rms          rms(c)
DAV:   1    -0.116028858938E+04   -0.39817E-03   -0.69525E-01 12416   0.930E-01    0.160E-01
RMM:   2    -0.116029016077E+04   -0.15714E-02   -0.16225E-02 12774   0.152E-01    0.992E-02
RMM:   3    -0.116029014177E+04    0.19000E-04   -0.71026E-04 10298   0.468E-02    0.622E-02
RMM:   4    -0.116029010950E+04    0.32269E-04   -0.14648E-04  7347   0.162E-02    0.306E-02
RMM:   5    -0.116029011536E+04   -0.58674E-05   -0.48441E-05  7033   0.103E-02    0.117E-02
RMM:   6    -0.116029011867E+04   -0.33026E-05   -0.20863E-05  6763   0.667E-03    0.824E-03
RMM:   7    -0.116029012058E+04   -0.19164E-05   -0.11850E-05  6119   0.517E-03    0.685E-03
RMM:   8    -0.116029012221E+04   -0.16257E-05   -0.79780E-06  5551   0.418E-03
  10 F= -.11602901E+04 E0= -.11602901E+04  d E =-.192940E-02  mag=     8.0000
       N       E                     dE             d eps       ncg     rms          rms(c)
DAV:   1    -0.116029063997E+04   -0.51939E-03   -0.53798E-01 12432   0.818E-01    0.140E-01
RMM:   2    -0.116029185681E+04   -0.12168E-02   -0.12567E-02 12773   0.134E-01    0.867E-02
RMM:   3    -0.116029184075E+04    0.16062E-04   -0.53852E-04  9435   0.413E-02    0.546E-02
RMM:   4    -0.116029181691E+04    0.23843E-04   -0.11733E-04  7255   0.146E-02    0.267E-02
RMM:   5    -0.116029182189E+04   -0.49817E-05   -0.39387E-05  6966   0.930E-03    0.107E-02
RMM:   6    -0.116029182469E+04   -0.28045E-05   -0.17458E-05  6691   0.614E-03    0.752E-03
RMM:   7    -0.116029182634E+04   -0.16484E-05   -0.98814E-06  5936   0.476E-03    0.640E-03
RMM:   8    -0.116029182775E+04   -0.14123E-05   -0.65099E-06  5219   0.390E-03
  11 F= -.11602918E+04 E0= -.11602918E+04  d E =-.170555E-02  mag=     8.0000
       N       E                     dE             d eps       ncg     rms          rms(c)
DAV:   1    -0.116029240817E+04   -0.58183E-03   -0.37822E-01 12352   0.685E-01    0.117E-01
RMM:   2    -0.116029326275E+04   -0.85458E-03   -0.88425E-03 12748   0.112E-01    0.727E-02
RMM:   3    -0.116029324951E+04    0.13241E-04   -0.36921E-04  8600   0.350E-02    0.460E-02
RMM:   4    -0.116029323377E+04    0.15740E-04   -0.87998E-05  7162   0.126E-02    0.227E-02
RMM:   5    -0.116029323776E+04   -0.39911E-05   -0.29007E-05  6799   0.804E-03    0.975E-03
RMM:   6    -0.116029323998E+04   -0.22126E-05   -0.13557E-05  6454   0.539E-03    0.660E-03
RMM:   7    -0.116029324134E+04   -0.13585E-05   -0.76810E-06  5487   0.427E-03    0.526E-03
RMM:   8    -0.116029324258E+04   -0.12446E-05   -0.50838E-06  4797   0.347E-03
  12 F= -.11602932E+04 E0= -.11602932E+04  d E =-.141483E-02  mag=     8.0000
