       N       E                     dE             d eps       ncg     rms          rms(c)
DAV:   1    -0.116034509695E+04   -0.11603E+04   -0.40091E-05  6248   0.197E-02    0.225E-02
RMM:   2    -0.116034516202E+04   -0.65077E-04   -0.68287E-05  5114   0.122E-02    0.327E-02
RMM:   3    -0.116034517914E+04   -0.17118E-04   -0.25252E-05  4567   0.564E-03    0.251E-02
RMM:   4    -0.116034514971E+04    0.29432E-04   -0.90650E-06  4281   0.512E-03    0.252E-02
RMM:   5    -0.116034512267E+04    0.27037E-04   -0.62731E-06  3526   0.399E-03    0.254E-02
RMM:   6    -0.116034510599E+04    0.16685E-04   -0.44974E-06  2999   0.286E-03    0.243E-02
RMM:   7    -0.116034501686E+04    0.89127E-04   -0.36613E-05  4305   0.736E-03    0.263E-02
RMM:   8    -0.116034461469E+04    0.40217E-03   -0.71377E-04  6320   0.298E-02    0.344E-02
RMM:   9    -0.116034459414E+04    0.20545E-04   -0.15858E-04  4786   0.124E-02
   1 F= -.11603446E+04 E0= -.11603446E+04  d E =-.116034E+04  mag=     8.0000
       N       E                     dE             d eps       ncg     rms          rms(c)
DAV:   1    -0.116034449222E+04    0.12246E-03   -0.85915E-01  9568   0.105E+00    0.387E-01
RMM:   2    -0.116034721923E+04   -0.27270E-02   -0.23478E-02  9302   0.196E-01    0.289E-01
RMM:   3    -0.116034733518E+04   -0.11595E-03   -0.12793E-03  9008   0.657E-02    0.163E-01
RMM:   4    -0.116034722385E+04    0.11134E-03   -0.55063E-04  7953   0.264E-02    0.789E-02
RMM:   5    -0.116034722556E+04   -0.17166E-05   -0.12456E-04  6037   0.180E-02    0.273E-02
RMM:   6    -0.116034723914E+04   -0.13580E-04   -0.35251E-05  5311   0.831E-03    0.208E-02
RMM:   7    -0.116034725742E+04   -0.18275E-04   -0.21377E-05  5063   0.656E-03    0.185E-02
RMM:   8    -0.116034728519E+04   -0.27770E-04   -0.22102E-05  5042   0.585E-03
   2 F= -.11603473E+04 E0= -.11603473E+04  d E =-.269104E-02  mag=     8.0000
       N       E                     dE             d eps       ncg     rms          rms(c)
DAV:   1    -0.116034822618E+04   -0.96876E-03   -0.20552E-01  9344   0.522E-01    0.185E-01
RMM:   2    -0.116034867071E+04   -0.44453E-03   -0.61400E-03  9208   0.101E-01    0.167E-01
RMM:   3    -0.116034864042E+04    0.30284E-04   -0.28344E-04  6794   0.330E-02    0.105E-01
RMM:   4    -0.116034861162E+04    0.28801E-04   -0.25143E-04  6873   0.175E-02    0.493E-02
RMM:   5    -0.116034862151E+04   -0.98873E-05   -0.60398E-05  5392   0.116E-02    0.214E-02
RMM:   6    -0.116034863226E+04   -0.10755E-04   -0.19055E-05  4957   0.584E-03    0.191E-02
RMM:   7    -0.116034864767E+04   -0.15409E-04   -0.12661E-05  4469   0.458E-03    0.160E-02
RMM:   8    -0.116034867592E+04   -0.28248E-04   -0.20334E-05  4697   0.510E-03
   3 F= -.11603487E+04 E0= -.11603487E+04  d E =-.139073E-02  mag=     8.0000
       N       E                     dE             d eps       ncg     rms          rms(c)
DAV:   1    -0.116034877217E+04   -0.12450E-03   -0.42243E-01  9528   0.745E-01    0.216E-01
RMM:   2    -0.116035002202E+04   -0.12499E-02   -0.10680E-02  9591   0.128E-01    0.138E-01
RMM:   3    -0.116035006809E+04   -0.46071E-04   -0.47144E-04  7271   0.415E-02    0.786E-02
RMM:   4    -0.116035005705E+04    0.11045E-04   -0.14147E-04  5486   0.157E-02    0.366E-02
RMM:   5    -0.116035007673E+04   -0.19687E-04   -0.57937E-05  5318   0.105E-02    0.162E-02
RMM:   6    -0.116035008712E+04   -0.10384E-04   -0.20144E-05  5092   0.664E-03    0.142E-02
RMM:   7    -0.116035009880E+04   -0.11680E-04   -0.13638E-05  4685   0.507E-03    0.134E-02
RMM:   8    -0.116035011681E+04   -0.18016E-04   -0.15056E-05  4581   0.471E-03
   4 F= -.11603501E+04 E0= -.11603501E+04  d E =-.144089E-02  mag=     8.0000
       N       E                     dE             d eps       ncg     rms          rms(c)
DAV:   1    -0.116035053196E+04   -0.43316E-03   -0.25250E-01  9392   0.577E-01    0.126E-01
RMM:   2    -0.116035112691E+04   -0.59495E-03   -0.62141E-03  9465   0.967E-02    0.843E-02
RMM:   3    -0.116035112586E+04    0.10501E-05   -0.26270E-04  6186   0.318E-02    0.536E-02
RMM:   4    -0.116035112864E+04   -0.27792E-05   -0.93205E-05  5374   0.124E-02    0.292E-02
RMM:   5    -0.116035114959E+04   -0.20946E-04   -0.38954E-05  5209   0.821E-03    0.166E-02
RMM:   6    -0.116035116213E+04   -0.12544E-04   -0.16538E-05  5002   0.585E-03    0.161E-02
RMM:   7    -0.116035117586E+04   -0.13733E-04   -0.11991E-05  4364   0.447E-03    0.142E-02
RMM:   8    -0.116035119503E+04   -0.19163E-04   -0.13744E-05  4237   0.434E-03
   5 F= -.11603512E+04 E0= -.11603512E+04  d E =-.107821E-02  mag=     8.0000
