       N       E                     dE             d eps       ncg     rms          rms(c)
DAV:   1    -0.116261753446E+04   -0.11626E+04   -0.14795E-05  3824   0.122E-02    0.117E-02
RMM:   2    -0.116261753417E+04    0.29764E-06   -0.10273E-05  3158   0.458E-03    0.133E-02
RMM:   3    -0.116261753430E+04   -0.12982E-06   -0.37392E-06  2611   0.316E-03    0.254E-03
RMM:   4    -0.116261753444E+04   -0.14711E-06   -0.19088E-06  2193   0.253E-03    0.324E-03
RMM:   5    -0.116261753456E+04   -0.11368E-06   -0.10866E-06  1746   0.238E-03    0.160E-03
RMM:   6    -0.116261753459E+04   -0.33368E-07   -0.29178E-07  1177   0.200E-03    0.974E-04
RMM:   7    -0.116261753462E+04   -0.31869E-07   -0.18496E-07  1048   0.194E-03    0.830E-04
RMM:   8    -0.116261753464E+04   -0.16385E-07   -0.64950E-08   901   0.190E-03
   1 F= -.11626175E+04 E0= -.11626167E+04  d E =-.116262E+04  mag=     5.9910
       N       E                     dE             d eps       ncg     rms          rms(c)
DAV:   1    -0.116262283461E+04   -0.53000E-02   -0.24651E+00  6368   0.188E+00    0.500E-01
RMM:   2    -0.116262824858E+04   -0.54140E-02   -0.72879E-02  6153   0.349E-01    0.448E-01
RMM:   3    -0.116262791618E+04    0.33240E-03   -0.36004E-03  6352   0.113E-01    0.289E-01
RMM:   4    -0.116262768943E+04    0.22675E-03   -0.15963E-03  6604   0.422E-02    0.163E-01
RMM:   5    -0.116262752559E+04    0.16384E-03   -0.45724E-04  5363   0.244E-02    0.387E-02
RMM:   6    -0.116262752578E+04   -0.18311E-06   -0.58947E-05  3667   0.123E-02    0.260E-02
RMM:   7    -0.116262752826E+04   -0.24855E-05   -0.35130E-05  3606   0.821E-03    0.175E-02
RMM:   8    -0.116262753002E+04   -0.17589E-05   -0.19694E-05  3537   0.670E-03
   2 F= -.11626275E+04 E0= -.11626267E+04  d E =-.999538E-02  mag=     5.9903
       N       E                     dE             d eps       ncg     rms          rms(c)
DAV:   1    -0.116263067606E+04   -0.31478E-02   -0.72209E-01  6448   0.101E+00    0.287E-01
RMM:   2    -0.116263226904E+04   -0.15930E-02   -0.23665E-02  6158   0.198E-01    0.301E-01
RMM:   3    -0.116263210691E+04    0.16213E-03   -0.13397E-03  6286   0.669E-02    0.207E-01
RMM:   4    -0.116263199838E+04    0.10852E-03   -0.55660E-04  5298   0.264E-02    0.120E-01
RMM:   5    -0.116263192240E+04    0.75986E-04   -0.18764E-04  4203   0.198E-02    0.283E-02
RMM:   6    -0.116263192552E+04   -0.31180E-05   -0.44749E-05  3593   0.108E-02    0.195E-02
RMM:   7    -0.116263192684E+04   -0.13281E-05   -0.21027E-05  3484   0.680E-03    0.162E-02
RMM:   8    -0.116263192805E+04   -0.12045E-05   -0.13280E-05  3399   0.559E-03
   3 F= -.11626319E+04 E0= -.11626311E+04  d E =-.439803E-02  mag=     5.9901
       N       E                     dE             d eps       ncg     rms          rms(c)
DAV:   1    -0.116263213900E+04   -0.21216E-03   -0.31977E+00  6400   0.213E+00    0.477E-01
RMM:   2    -0.116263943862E+04   -0.72996E-02   -0.85226E-02  6179   0.367E-01    0.350E-01
RMM:   3    -0.116263930720E+04    0.13142E-03   -0.42937E-03  6237   0.127E-01    0.223E-01
RMM:   4    -0.116263916062E+04    0.14658E-03   -0.15179E-03  7146   0.412E-02    0.119E-01
RMM:   5    -0.116263909785E+04    0.62772E-04   -0.40662E-04  5131   0.203E-02    0.260E-02
RMM:   6    -0.116263909975E+04   -0.19001E-05   -0.62501E-05  3628   0.124E-02    0.170E-02
RMM:   7    -0.116263910370E+04   -0.39503E-05   -0.38381E-05  3574   0.850E-03    0.108E-02
RMM:   8    -0.116263910645E+04   -0.27450E-05   -0.23716E-05  3481   0.717E-03
   4 F= -.11626391E+04 E0= -.11626383E+04  d E =-.717840E-02  mag=     5.9895
       N       E                     dE             d eps       ncg     rms          rms(c)
DAV:   1    -0.116263974438E+04   -0.64068E-03   -0.11892E+00  6416   0.129E+00    0.257E-01
RMM:   2    -0.116264240005E+04   -0.26557E-02   -0.30951E-02  6225   0.220E-01    0.187E-01
RMM:   3    -0.116264235265E+04    0.47401E-04   -0.15593E-03  6113   0.771E-02    0.121E-01
RMM:   4    -0.116264230103E+04    0.51615E-04   -0.48301E-04  5424   0.252E-02    0.675E-02
RMM:   5    -0.116264227335E+04    0.27684E-04   -0.11245E-04  3832   0.163E-02    0.147E-02
RMM:   6    -0.116264227843E+04   -0.50779E-05   -0.41534E-05  3556   0.963E-03    0.110E-02
RMM:   7    -0.116264228081E+04   -0.23834E-05   -0.23019E-05  3460   0.758E-03    0.882E-03
RMM:   8    -0.116264228246E+04   -0.16526E-05   -0.15549E-05  3314   0.559E-03
   5 F= -.11626423E+04 E0= -.11626415E+04  d E =-.317601E-02  mag=     5.9892
       N       E                     dE             d eps       ncg     rms          rms(c)
DAV:   1    -0.116264284299E+04   -0.56218E-03   -0.66605E-01  6432   0.951E-01    0.179E-01
RMM:   2    -0.116264431961E+04   -0.14766E-02   -0.16775E-02  6345   0.161E-01    0.126E-01
RMM:   3    -0.116264428623E+04    0.33377E-04   -0.79664E-04  5419   0.533E-02    0.806E-02
RMM:   4    -0.116264425333E+04    0.32898E-04   -0.20672E-04  3916   0.183E-02    0.476E-02
RMM:   5    -0.116264424556E+04    0.77703E-05   -0.68760E-05  3570   0.126E-02    0.993E-03
RMM:   6    -0.116264424871E+04   -0.31474E-05   -0.25381E-05  3480   0.770E-03    0.815E-03
RMM:   7    -0.116264425037E+04   -0.16588E-05   -0.14654E-05  3298   0.570E-03    0.539E-03
RMM:   8    -0.116264425173E+04   -0.13671E-05   -0.98720E-06  3152   0.461E-03
   6 F= -.11626443E+04 E0= -.11626435E+04  d E =-.196927E-02  mag=     5.9892
       N       E                     dE             d eps       ncg     rms          rms(c)
DAV:   1    -0.116264418383E+04    0.66541E-04   -0.95111E-01  6344   0.113E+00    0.202E-01
RMM:   2    -0.116264628813E+04   -0.21043E-02   -0.23375E-02  6228   0.189E-01    0.137E-01
RMM:   3    -0.116264626293E+04    0.25199E-04   -0.11589E-03  5889   0.656E-02    0.889E-02
RMM:   4    -0.116264622357E+04    0.39360E-04   -0.32266E-04  4423   0.209E-02    0.481E-02
RMM:   5    -0.116264621492E+04    0.86488E-05   -0.75829E-05  3587   0.136E-02    0.111E-02
RMM:   6    -0.116264621907E+04   -0.41499E-05   -0.30494E-05  3504   0.806E-03    0.874E-03
RMM:   7    -0.116264622112E+04   -0.20474E-05   -0.17020E-05  3354   0.630E-03    0.645E-03
RMM:   8    -0.116264622302E+04   -0.19035E-05   -0.11931E-05  3213   0.483E-03
   7 F= -.11626462E+04 E0= -.11626454E+04  d E =-.197128E-02  mag=     5.9890
       N       E                     dE             d eps       ncg     rms          rms(c)
DAV:   1    -0.116264624497E+04   -0.23859E-04   -0.65349E-01  6368   0.932E-01    0.166E-01
RMM:   2    -0.116264770289E+04   -0.14579E-02   -0.16018E-02  6377   0.156E-01    0.108E-01
RMM:   3    -0.116264767420E+04    0.28698E-04   -0.72258E-04  5176   0.492E-02    0.705E-02
RMM:   4    -0.116264764210E+04    0.32094E-04   -0.18877E-04  3787   0.175E-02    0.350E-02
RMM:   5    -0.116264764258E+04   -0.47692E-06   -0.55529E-05  3546   0.114E-02    0.984E-03
RMM:   6    -0.116264764566E+04   -0.30850E-05   -0.22963E-05  3443   0.697E-03    0.768E-03
RMM:   7    -0.116264764748E+04   -0.18178E-05   -0.12838E-05  3274   0.542E-03    0.574E-03
RMM:   8    -0.116264764935E+04   -0.18641E-05   -0.92552E-06  3074   0.430E-03
   8 F= -.11626476E+04 E0= -.11626469E+04  d E =-.142633E-02  mag=     5.9890
       N       E                     dE             d eps       ncg     rms          rms(c)
DAV:   1    -0.116264778906E+04   -0.14158E-03   -0.42911E-01  6336   0.752E-01    0.136E-01
RMM:   2    -0.116264875219E+04   -0.96313E-03   -0.10409E-02  6314   0.125E-01    0.884E-02
RMM:   3    -0.116264873671E+04    0.15484E-04   -0.46509E-04  4563   0.412E-02    0.571E-02
RMM:   4    -0.116264871586E+04    0.20850E-04   -0.11899E-04  3599   0.144E-02    0.290E-02
RMM:   5    -0.116264871856E+04   -0.27009E-05   -0.40281E-05  3503   0.949E-03    0.898E-03
RMM:   6    -0.116264872097E+04   -0.24105E-05   -0.16694E-05  3380   0.605E-03    0.696E-03
RMM:   7    -0.116264872256E+04   -0.15895E-05   -0.96138E-06  3116   0.465E-03    0.543E-03
RMM:   8    -0.116264872413E+04   -0.15713E-05   -0.65520E-06  2763   0.382E-03
   9 F= -.11626487E+04 E0= -.11626479E+04  d E =-.107479E-02  mag=     5.9889
       N       E                     dE             d eps       ncg     rms          rms(c)
DAV:   1    -0.116264869134E+04    0.31222E-04   -0.47681E-01  6336   0.790E-01    0.141E-01
RMM:   2    -0.116264975332E+04   -0.10620E-02   -0.11405E-02  6254   0.131E-01    0.890E-02
RMM:   3    -0.116264974347E+04    0.98508E-05   -0.54782E-04  4830   0.453E-02    0.576E-02
RMM:   4    -0.116264972013E+04    0.23337E-04   -0.12959E-04  3620   0.148E-02    0.292E-02
RMM:   5    -0.116264972390E+04   -0.37665E-05   -0.41487E-05  3509   0.979E-03    0.858E-03
RMM:   6    -0.116264972676E+04   -0.28607E-05   -0.18111E-05  3394   0.599E-03    0.644E-03
RMM:   7    -0.116264972855E+04   -0.17892E-05   -0.10067E-05  3118   0.484E-03    0.518E-03
RMM:   8    -0.116264973067E+04   -0.21273E-05   -0.76029E-06  2817   0.374E-03
  10 F= -.11626497E+04 E0= -.11626490E+04  d E =-.100654E-02  mag=     5.9889
