       N       E                     dE             d eps       ncg     rms          rms(c)
DAV:   1    -0.116224819171E+04   -0.11622E+04   -0.16832E-05  4616   0.131E-02    0.276E-02
RMM:   2    -0.116224820339E+04   -0.11684E-04   -0.44645E-05  3445   0.677E-03    0.405E-02
RMM:   3    -0.116224817994E+04    0.23460E-04   -0.13687E-05  2750   0.448E-03    0.360E-03
RMM:   4    -0.116224818032E+04   -0.38093E-06   -0.10952E-06  1465   0.206E-03    0.270E-03
RMM:   5    -0.116224818072E+04   -0.40566E-06   -0.70611E-07  1258   0.199E-03    0.259E-03
RMM:   6    -0.116224818106E+04   -0.33373E-06   -0.40534E-07  1012   0.189E-03    0.252E-03
RMM:   7    -0.116224818126E+04   -0.20477E-06   -0.22922E-07   808   0.185E-03    0.267E-03
RMM:   8    -0.116224818041E+04    0.84711E-06   -0.38033E-07   816   0.180E-03
   1 F= -.11622482E+04 E0= -.11622478E+04  d E =-.116225E+04  mag=    -4.0015
       N       E                     dE             d eps       ncg     rms          rms(c)
DAV:   1    -0.116224804785E+04    0.13341E-03   -0.97992E-02  6176   0.357E-01    0.774E-02
RMM:   2    -0.116224827696E+04   -0.22911E-03   -0.23774E-03  6256   0.608E-02    0.480E-02
RMM:   3    -0.116224827565E+04    0.13063E-05   -0.96262E-05  3377   0.204E-02    0.288E-02
RMM:   4    -0.116224827245E+04    0.31953E-05   -0.33531E-05  3233   0.751E-03    0.181E-02
RMM:   5    -0.116224827178E+04    0.67799E-06   -0.13187E-05  3001   0.498E-03    0.120E-02
RMM:   6    -0.116224827126E+04    0.51237E-06   -0.51782E-06  2729   0.351E-03    0.373E-03
RMM:   7    -0.116224827162E+04   -0.35801E-06   -0.18708E-06  1767   0.249E-03    0.295E-03
RMM:   8    -0.116224827191E+04   -0.28872E-06   -0.94000E-07  1360   0.223E-03
   2 F= -.11622483E+04 E0= -.11622479E+04  d E =-.914968E-04  mag=    -4.0014
       N       E                     dE             d eps       ncg     rms          rms(c)
DAV:   1    -0.116224827696E+04   -0.53345E-05   -0.21039E-02  6112   0.165E-01    0.379E-02
RMM:   2    -0.116224832199E+04   -0.45036E-04   -0.50880E-04  4864   0.290E-02    0.257E-02
RMM:   3    -0.116224832327E+04   -0.12795E-05   -0.31347E-05  3164   0.113E-02    0.145E-02
RMM:   4    -0.116224832242E+04    0.84947E-06   -0.12007E-05  3030   0.461E-03    0.923E-03
RMM:   5    -0.116224832263E+04   -0.20341E-06   -0.41858E-06  2464   0.327E-03    0.501E-03
RMM:   6    -0.116224832308E+04   -0.45558E-06   -0.16121E-06  1641   0.230E-03    0.328E-03
RMM:   7    -0.116224832362E+04   -0.53442E-06   -0.82644E-07  1323   0.217E-03    0.326E-03
RMM:   8    -0.116224832370E+04   -0.84576E-07   -0.20463E-07   864   0.189E-03
   3 F= -.11622483E+04 E0= -.11622479E+04  d E =-.517898E-04  mag=    -4.0013
       N       E                     dE             d eps       ncg     rms          rms(c)
DAV:   1    -0.116224823094E+04    0.92673E-04   -0.57284E-02  6112   0.271E-01    0.551E-02
RMM:   2    -0.116224836454E+04   -0.13360E-03   -0.13542E-03  6039   0.457E-02    0.322E-02
RMM:   3    -0.116224836676E+04   -0.22256E-05   -0.60820E-05  3365   0.170E-02    0.196E-02
RMM:   4    -0.116224836865E+04   -0.18842E-05   -0.22602E-05  3211   0.592E-03    0.134E-02
RMM:   5    -0.116224837358E+04   -0.49340E-05   -0.88881E-06  2802   0.391E-03    0.114E-02
RMM:   6    -0.116224837866E+04   -0.50739E-05   -0.49910E-06  2447   0.299E-03    0.942E-03
RMM:   7    -0.116224837757E+04    0.10883E-05   -0.10751E-06  1459   0.233E-03    0.920E-03
RMM:   8    -0.116224837501E+04    0.25545E-05   -0.71003E-07  1137   0.208E-03
   4 F= -.11622484E+04 E0= -.11622480E+04  d E =-.513145E-04  mag=    -4.0013
       N       E                     dE             d eps       ncg     rms          rms(c)
DAV:   1    -0.116224814375E+04    0.23382E-03   -0.10349E-01  6128   0.365E-01    0.771E-02
RMM:   2    -0.116224839861E+04   -0.25486E-03   -0.24969E-03  6292   0.616E-02    0.466E-02
RMM:   3    -0.116224840226E+04   -0.36469E-05   -0.98966E-05  3522   0.201E-02    0.274E-02
RMM:   4    -0.116224840555E+04   -0.32890E-05   -0.32702E-05  3372   0.734E-03    0.166E-02
RMM:   5    -0.116224842065E+04   -0.15105E-04   -0.19701E-05  3172   0.512E-03    0.142E-02
RMM:   6    -0.116224842918E+04   -0.85284E-05   -0.69018E-06  2726   0.359E-03    0.141E-02
RMM:   7    -0.116224841837E+04    0.10807E-04   -0.41762E-06  2313   0.293E-03    0.126E-02
RMM:   8    -0.116224839968E+04    0.18697E-04   -0.19885E-05  2960   0.418E-03
   5 F= -.11622484E+04 E0= -.11622480E+04  d E =-.246614E-04  mag=    -4.0014
       N       E                     dE             d eps       ncg     rms          rms(c)
DAV:   1    -0.116224821702E+04    0.20136E-03   -0.71620E-02  6128   0.303E-01    0.671E-02
RMM:   2    -0.116224839324E+04   -0.17622E-03   -0.17105E-03  6098   0.514E-02    0.388E-02
RMM:   3    -0.116224839736E+04   -0.41234E-05   -0.76104E-05  3463   0.184E-02    0.222E-02
RMM:   4    -0.116224839728E+04    0.81534E-07   -0.25231E-05  3314   0.661E-03    0.141E-02
RMM:   5    -0.116224839987E+04   -0.25890E-05   -0.85980E-06  2832   0.426E-03    0.130E-02
RMM:   6    -0.116224840371E+04   -0.38468E-05   -0.58858E-06  2628   0.333E-03    0.754E-03
RMM:   7    -0.116224840556E+04   -0.18434E-05   -0.21771E-06  1857   0.262E-03    0.796E-03
RMM:   8    -0.116224840299E+04    0.25690E-05   -0.12039E-06  1358   0.224E-03
   6 F= -.11622484E+04 E0= -.11622480E+04  d E =-.331228E-05  mag=    -4.0013
       N       E                     dE             d eps       ncg     rms          rms(c)
DAV:   1    -0.116224814862E+04    0.25693E-03   -0.92297E-02  6112   0.344E-01    0.712E-02
RMM:   2    -0.116224837162E+04   -0.22300E-03   -0.22021E-03  6254   0.580E-02    0.412E-02
RMM:   3    -0.116224837467E+04   -0.30498E-05   -0.90471E-05  3512   0.191E-02    0.247E-02
RMM:   4    -0.116224837697E+04   -0.22950E-05   -0.30634E-05  3369   0.705E-03    0.146E-02
RMM:   5    -0.116224838819E+04   -0.11220E-04   -0.15651E-05  3109   0.470E-03    0.115E-02
RMM:   6    -0.116224839454E+04   -0.63487E-05   -0.55872E-06  2511   0.332E-03    0.122E-02
RMM:   7    -0.116224838311E+04    0.11432E-04   -0.54340E-06  2421   0.299E-03    0.106E-02
RMM:   8    -0.116224837031E+04    0.12800E-04   -0.18529E-05  2982   0.396E-03
   7 F= -.11622484E+04 E0= -.11622480E+04  d E =0.326818E-04  mag=    -4.0014
       N       E                     dE             d eps       ncg     rms          rms(c)
DAV:   1    -0.116224796689E+04    0.41622E-03   -0.12691E-01  6112   0.403E-01    0.858E-02
RMM:   2    -0.116224827717E+04   -0.31029E-03   -0.30188E-03  6383   0.680E-02    0.494E-02
RMM:   3    -0.116224828064E+04   -0.34662E-05   -0.12476E-04  3618   0.221E-02    0.285E-02
RMM:   4    -0.116224827906E+04    0.15811E-05   -0.34735E-05  3403   0.790E-03    0.183E-02
RMM:   5    -0.116224828054E+04   -0.14764E-05   -0.16012E-05  3225   0.536E-03    0.140E-02
RMM:   6    -0.116224828140E+04   -0.86559E-06   -0.73161E-06  3026   0.393E-03    0.582E-03
RMM:   7    -0.116224828375E+04   -0.23506E-05   -0.31205E-06  2216   0.280E-03    0.653E-03
RMM:   8    -0.116224828265E+04    0.10991E-05   -0.14007E-06  1627   0.232E-03
   8 F= -.11622483E+04 E0= -.11622479E+04  d E =0.876536E-04  mag=    -4.0012
