       N       E                     dE             d eps       ncg     rms          rms(c)
DAV:   1    -0.116294291435E+04   -0.11629E+04   -0.18477E-04 10848   0.254E-02    0.333E-02
RMM:   2    -0.116294305771E+04   -0.14337E-03   -0.84238E-05  6873   0.124E-02    0.418E-02
RMM:   3    -0.116294309478E+04   -0.37063E-04   -0.23863E-05  5642   0.490E-03    0.344E-02
RMM:   4    -0.116294310697E+04   -0.12198E-04   -0.91686E-06  5164   0.384E-03    0.361E-02
RMM:   5    -0.116294311052E+04   -0.35507E-05   -0.29894E-06  3497   0.242E-03    0.354E-02
RMM:   6    -0.116294294042E+04    0.17010E-03   -0.50558E-05  5987   0.863E-03    0.365E-02
RMM:   7    -0.116294251016E+04    0.43026E-03   -0.35225E-04  7326   0.204E-02    0.383E-02
RMM:   8    -0.116294214886E+04    0.36130E-03   -0.36894E-04  6956   0.188E-02    0.420E-02
RMM:   9    -0.116294228156E+04   -0.13270E-03   -0.31012E-05  5609   0.765E-03    0.405E-02
RMM:  10    -0.116294252972E+04   -0.24817E-03   -0.83590E-05  6087   0.114E-02    0.405E-02
RMM:  11    -0.116294322330E+04   -0.69357E-03   -0.10986E-03  8662   0.369E-02    0.351E-02
RMM:  12    -0.116294461855E+04   -0.13953E-02   -0.12221E-02 10952   0.124E-01    0.544E-02
RMM:  13    -0.116294507992E+04   -0.46137E-03   -0.13592E-03  9309   0.306E-02    0.485E-02
RMM:  14    -0.116294506817E+04    0.11753E-04   -0.63436E-05  7090   0.114E-02
   1 F= -.11629451E+04 E0= -.11629432E+04  d E =-.116295E+04  mag=     5.9721
       N       E                     dE             d eps       ncg     rms          rms(c)
DAV:   1    -0.116292804313E+04    0.17037E-01   -0.53657E+00 12752   0.241E+00    0.139E+00
RMM:   2    -0.116295818286E+04   -0.30140E-01   -0.13791E-01 12290   0.483E-01    0.870E-01
RMM:   3    -0.116296192237E+04   -0.37395E-02   -0.79142E-03 12326   0.160E-01    0.398E-01
RMM:   4    -0.116296205003E+04   -0.12766E-03   -0.31608E-03 12861   0.685E-02    0.217E-01
RMM:   5    -0.116296234090E+04   -0.29087E-03   -0.83046E-04 10729   0.346E-02    0.105E-01
RMM:   6    -0.116296256441E+04   -0.22351E-03   -0.18447E-04  8134   0.184E-02    0.656E-02
RMM:   7    -0.116296287308E+04   -0.30868E-03   -0.17990E-04  7786   0.151E-02    0.667E-02
RMM:   8    -0.116296316406E+04   -0.29097E-03   -0.15777E-04  7496   0.135E-02    0.566E-02
RMM:   9    -0.116296364707E+04   -0.48302E-03   -0.31680E-04  7860   0.191E-02    0.556E-02
RMM:  10    -0.116296410335E+04   -0.45628E-03   -0.37476E-04  7935   0.187E-02    0.491E-02
RMM:  11    -0.116296539709E+04   -0.12937E-02   -0.27716E-03  9893   0.580E-02    0.400E-02
RMM:  12    -0.116296650849E+04   -0.11114E-02   -0.38779E-03 10313   0.673E-02    0.360E-02
RMM:  13    -0.116296689319E+04   -0.38470E-03   -0.11092E-03  9111   0.289E-02    0.350E-02
RMM:  14    -0.116296709074E+04   -0.19755E-03   -0.25647E-04  7550   0.157E-02    0.341E-02
RMM:  15    -0.116296705308E+04    0.37652E-04   -0.41627E-05  6450   0.823E-03
   2 F= -.11629671E+04 E0= -.11629656E+04  d E =-.219849E-01  mag=     5.9844
       N       E                     dE             d eps       ncg     rms          rms(c)
DAV:   1    -0.116296488296E+04    0.22078E-02   -0.13476E+00 12768   0.118E+00    0.747E-01
RMM:   2    -0.116297280413E+04   -0.79212E-02   -0.34031E-02 12296   0.234E-01    0.471E-01
RMM:   3    -0.116297383851E+04   -0.10344E-02   -0.21226E-03 12245   0.799E-02    0.221E-01
RMM:   4    -0.116297396387E+04   -0.12536E-03   -0.11154E-03 11144   0.366E-02    0.108E-01
RMM:   5    -0.116297413923E+04   -0.17536E-03   -0.29758E-04  8921   0.239E-02    0.547E-02
RMM:   6    -0.116297422954E+04   -0.90309E-04   -0.76751E-05  7334   0.113E-02    0.447E-02
RMM:   7    -0.116297438687E+04   -0.15733E-03   -0.83628E-05  7164   0.100E-02    0.405E-02
RMM:   8    -0.116297461130E+04   -0.22443E-03   -0.13007E-04  7207   0.115E-02    0.365E-02
RMM:   9    -0.116297478370E+04   -0.17240E-03   -0.11411E-04  6902   0.894E-03    0.351E-02
RMM:  10    -0.116297515509E+04   -0.37139E-03   -0.36548E-04  7668   0.186E-02    0.324E-02
RMM:  11    -0.116297582298E+04   -0.66788E-03   -0.17165E-03  9103   0.418E-02    0.262E-02
RMM:  12    -0.116297647314E+04   -0.65017E-03   -0.33613E-03  9719   0.590E-02    0.237E-02
RMM:  13    -0.116297665057E+04   -0.17742E-03   -0.62560E-04  8346   0.200E-02    0.218E-02
RMM:  14    -0.116297682183E+04   -0.17126E-03   -0.44505E-04  7757   0.204E-02    0.214E-02
RMM:  15    -0.116297682512E+04   -0.32908E-05   -0.61597E-05  6469   0.764E-03
   3 F= -.11629768E+04 E0= -.11629753E+04  d E =-.977204E-02  mag=     5.9816
       N       E                     dE             d eps       ncg     rms          rms(c)
DAV:   1    -0.116295963298E+04    0.17189E-01   -0.30530E+00 12640   0.171E+00    0.119E+00
RMM:   2    -0.116298047184E+04   -0.20839E-01   -0.66264E-02 12415   0.326E-01    0.652E-01
RMM:   3    -0.116298367951E+04   -0.32077E-02   -0.41808E-03 12389   0.115E-01    0.263E-01
RMM:   4    -0.116298379606E+04   -0.11655E-03   -0.13687E-03 11610   0.459E-02    0.138E-01
RMM:   5    -0.116298394318E+04   -0.14711E-03   -0.34670E-04  8566   0.235E-02    0.800E-02
RMM:   6    -0.116298405712E+04   -0.11394E-03   -0.11497E-04  7364   0.139E-02    0.415E-02
RMM:   7    -0.116298417500E+04   -0.11788E-03   -0.82515E-05  7206   0.110E-02    0.367E-02
RMM:   8    -0.116298436318E+04   -0.18818E-03   -0.12958E-04  7217   0.129E-02    0.343E-02
RMM:   9    -0.116298449999E+04   -0.13680E-03   -0.10618E-04  7089   0.933E-03    0.305E-02
RMM:  10    -0.116298464943E+04   -0.14944E-03   -0.10258E-04  6995   0.100E-02    0.298E-02
RMM:  11    -0.116298506457E+04   -0.41514E-03   -0.77556E-04  8363   0.281E-02    0.230E-02
RMM:  12    -0.116298543383E+04   -0.36927E-03   -0.12307E-03  8744   0.348E-02    0.201E-02
RMM:  13    -0.116298563795E+04   -0.20412E-03   -0.72079E-04  8070   0.234E-02    0.179E-02
RMM:  14    -0.116298574161E+04   -0.10365E-03   -0.27041E-04  7117   0.144E-02    0.164E-02
RMM:  15    -0.116298585867E+04   -0.11706E-03   -0.34095E-04  7411   0.158E-02    0.143E-02
RMM:  16    -0.116298595471E+04   -0.96041E-04   -0.31108E-04  6991   0.152E-02
   4 F= -.11629860E+04 E0= -.11629845E+04  d E =-.912959E-02  mag=     5.9830
       N       E                     dE             d eps       ncg     rms          rms(c)
DAV:   1    -0.116298360635E+04    0.22523E-02   -0.76059E-01 12696   0.902E-01    0.530E-01
RMM:   2    -0.116298803428E+04   -0.44279E-02   -0.17336E-02 12434   0.166E-01    0.287E-01
RMM:   3    -0.116298863042E+04   -0.59614E-03   -0.10608E-03 11812   0.612E-02    0.122E-01
RMM:   4    -0.116298863621E+04   -0.57878E-05   -0.28721E-04  8602   0.220E-02    0.586E-02
RMM:   5    -0.116298866436E+04   -0.28151E-04   -0.90493E-05  7292   0.139E-02    0.294E-02
RMM:   6    -0.116298868292E+04   -0.18564E-04   -0.34644E-05  7027   0.831E-03    0.189E-02
RMM:   7    -0.116298870054E+04   -0.17616E-04   -0.18669E-05  6810   0.585E-03    0.161E-02
RMM:   8    -0.116298872958E+04   -0.29041E-04   -0.21104E-05  6686   0.614E-03
   5 F= -.11629887E+04 E0= -.11629873E+04  d E =-.277487E-02  mag=     5.9834
       N       E                     dE             d eps       ncg     rms          rms(c)
DAV:   1    -0.116298882431E+04   -0.12377E-03   -0.32503E-01 12592   0.641E-01    0.212E-01
RMM:   2    -0.116298986049E+04   -0.10362E-02   -0.84850E-03 12417   0.119E-01    0.142E-01
RMM:   3    -0.116298991382E+04   -0.53338E-04   -0.45326E-04  9727   0.402E-02    0.812E-02
RMM:   4    -0.116298991133E+04    0.24946E-05   -0.14485E-04  7424   0.157E-02    0.410E-02
RMM:   5    -0.116298993581E+04   -0.24479E-04   -0.60387E-05  7066   0.996E-03    0.179E-02
RMM:   6    -0.116298994693E+04   -0.11126E-04   -0.19081E-05  6821   0.676E-03    0.148E-02
RMM:   7    -0.116298995985E+04   -0.12914E-04   -0.12676E-05  6186   0.452E-03    0.131E-02
RMM:   8    -0.116298998360E+04   -0.23751E-04   -0.16567E-05  6358   0.500E-03
   6 F= -.11629900E+04 E0= -.11629886E+04  d E =-.125402E-02  mag=     5.9836
       N       E                     dE             d eps       ncg     rms          rms(c)
DAV:   1    -0.116298938929E+04    0.57056E-03   -0.46594E-01 12592   0.757E-01    0.304E-01
RMM:   2    -0.116299125684E+04   -0.18676E-02   -0.11058E-02 12751   0.133E-01    0.167E-01
RMM:   3    -0.116299143009E+04   -0.17325E-03   -0.56912E-04 10048   0.447E-02    0.805E-02
RMM:   4    -0.116299144213E+04   -0.12035E-04   -0.14372E-04  7381   0.169E-02    0.395E-02
RMM:   5    -0.116299147573E+04   -0.33606E-04   -0.70523E-05  7108   0.107E-02    0.254E-02
RMM:   6    -0.116299149319E+04   -0.17457E-04   -0.25621E-05  6906   0.778E-03    0.179E-02
RMM:   7    -0.116299151048E+04   -0.17287E-04   -0.16998E-05  6660   0.534E-03    0.154E-02
RMM:   8    -0.116299153884E+04   -0.28367E-04   -0.19565E-05  6441   0.578E-03
   7 F= -.11629915E+04 E0= -.11629901E+04  d E =-.155524E-02  mag=     5.9834
       N       E                     dE             d eps       ncg     rms          rms(c)
DAV:   1    -0.116299102024E+04    0.49024E-03   -0.37053E-01 12624   0.679E-01    0.259E-01
RMM:   2    -0.116299245210E+04   -0.14319E-02   -0.88252E-03 12787   0.118E-01    0.142E-01
RMM:   3    -0.116299257702E+04   -0.12492E-03   -0.42149E-04  9182   0.390E-02    0.689E-02
RMM:   4    -0.116299259717E+04   -0.20143E-04   -0.11311E-04  7269   0.151E-02    0.355E-02
RMM:   5    -0.116299263143E+04   -0.34262E-04   -0.60852E-05  7049   0.968E-03    0.245E-02
RMM:   6    -0.116299265092E+04   -0.19496E-04   -0.24156E-05  6860   0.712E-03    0.174E-02
RMM:   7    -0.116299266937E+04   -0.18448E-04   -0.16096E-05  6504   0.526E-03    0.154E-02
RMM:   8    -0.116299270056E+04   -0.31189E-04   -0.21058E-05  6165   0.572E-03
   8 F= -.11629927E+04 E0= -.11629913E+04  d E =-.116172E-02  mag=     5.9835
       N       E                     dE             d eps       ncg     rms          rms(c)
DAV:   1    -0.116299264140E+04    0.27973E-04   -0.24162E-01 12544   0.561E-01    0.166E-01
RMM:   2    -0.116299339117E+04   -0.74977E-03   -0.58760E-03 12736   0.961E-02    0.955E-02
RMM:   3    -0.116299343564E+04   -0.44479E-04   -0.27898E-04  8225   0.325E-02    0.526E-02
RMM:   4    -0.116299345277E+04   -0.17123E-04   -0.88272E-05  7140   0.123E-02    0.289E-02
RMM:   5    -0.116299348108E+04   -0.28316E-04   -0.42789E-05  6945   0.818E-03    0.188E-02
RMM:   6    -0.116299349687E+04   -0.15791E-04   -0.18292E-05  6729   0.593E-03    0.149E-02
RMM:   7    -0.116299351329E+04   -0.16412E-04   -0.12836E-05  5929   0.475E-03    0.133E-02
RMM:   8    -0.116299354828E+04   -0.34994E-04   -0.27345E-05  6019   0.602E-03
   9 F= -.11629935E+04 E0= -.11629922E+04  d E =-.847719E-03  mag=     5.9835
       N       E                     dE             d eps       ncg     rms          rms(c)
DAV:   1    -0.116299345981E+04    0.53480E-04   -0.24163E-01 12456   0.564E-01    0.149E-01
RMM:   2    -0.116299414859E+04   -0.68879E-03   -0.58655E-03 12695   0.958E-02    0.857E-02
RMM:   3    -0.116299417906E+04   -0.30463E-04   -0.27669E-04  8242   0.327E-02    0.495E-02
RMM:   4    -0.116299419084E+04   -0.11781E-04   -0.82565E-05  7123   0.120E-02    0.265E-02
RMM:   5    -0.116299421566E+04   -0.24823E-04   -0.40939E-05  6921   0.810E-03    0.152E-02
RMM:   6    -0.116299422873E+04   -0.13071E-04   -0.16953E-05  6694   0.574E-03    0.129E-02
RMM:   7    -0.116299424452E+04   -0.15789E-04   -0.12938E-05  5891   0.483E-03    0.119E-02
RMM:   8    -0.116299427239E+04   -0.27872E-04   -0.23025E-05  5831   0.539E-03
  10 F= -.11629943E+04 E0= -.11629929E+04  d E =-.724112E-03  mag=     5.9836
