       N       E                     dE             d eps       ncg     rms          rms(c)
DAV:   1    -0.116516144911E+04   -0.11652E+04   -0.29053E-06  7216   0.274E-03    0.355E-03
RMM:   2    -0.116516144904E+04    0.66488E-07   -0.22772E-07  2604   0.185E-03    0.242E-03
RMM:   3    -0.116516144896E+04    0.83848E-07   -0.24413E-08  1923   0.169E-03    0.774E-04
RMM:   4    -0.116516144896E+04   -0.29686E-08   -0.96155E-10   954   0.168E-03    0.485E-04
RMM:   5    -0.116516144896E+04   -0.90222E-09   -0.82754E-10   745   0.168E-03    0.172E-04
RMM:   6    -0.116516144897E+04   -0.42201E-09    0.00000E+00   695   0.168E-03    0.422E-05
RMM:   7    -0.116516144896E+04    0.45111E-09    0.00000E+00   660   0.168E-03    0.205E-05
RMM:   8    -0.116516144897E+04   -0.59663E-09    0.00000E+00   637   0.168E-03
   1 F= -.11651614E+04 E0= -.11651559E+04  d E =-.116516E+04  mag=     1.9633
       N       E                     dE             d eps       ncg     rms          rms(c)
DAV:   1    -0.116516169598E+04   -0.24701E-03   -0.31032E-01 12672   0.642E-01    0.166E-01
RMM:   2    -0.116516224105E+04   -0.54508E-03   -0.97805E-03 12256   0.124E-01    0.181E-01
RMM:   3    -0.116516213115E+04    0.10990E-03   -0.35697E-04 10008   0.252E-02    0.124E-01
RMM:   4    -0.116516206081E+04    0.70338E-04   -0.27662E-04  9574   0.167E-02    0.699E-02
RMM:   5    -0.116516201514E+04    0.45673E-04   -0.73450E-05  8184   0.952E-03    0.199E-02
RMM:   6    -0.116516201524E+04   -0.10707E-06   -0.13202E-05  6786   0.410E-03    0.128E-02
RMM:   7    -0.116516201540E+04   -0.15891E-06   -0.52133E-06  5419   0.271E-03    0.968E-03
RMM:   8    -0.116516201555E+04   -0.14801E-06   -0.25341E-06  4861   0.235E-03
   2 F= -.11651620E+04 E0= -.11651565E+04  d E =-.566586E-03  mag=     1.9615
       N       E                     dE             d eps       ncg     rms          rms(c)
DAV:   1    -0.116516262014E+04   -0.60473E-03   -0.62293E-02 12304   0.286E-01    0.797E-02
RMM:   2    -0.116516269193E+04   -0.71789E-04   -0.21631E-03 12104   0.577E-02    0.891E-02
RMM:   3    -0.116516265740E+04    0.34525E-04   -0.70989E-05  7165   0.118E-02    0.598E-02
RMM:   4    -0.116516263523E+04    0.22174E-04   -0.73816E-05  6976   0.912E-03    0.314E-02
RMM:   5    -0.116516262284E+04    0.12384E-04   -0.20696E-05  6370   0.488E-03    0.113E-02
RMM:   6    -0.116516262271E+04    0.13453E-06   -0.34709E-06  4587   0.232E-03    0.839E-03
RMM:   7    -0.116516262274E+04   -0.33819E-07   -0.10035E-06  3202   0.188E-03    0.522E-03
RMM:   8    -0.116516262277E+04   -0.27023E-07   -0.48043E-07  2753   0.184E-03
   3 F= -.11651626E+04 E0= -.11651571E+04  d E =-.607218E-03  mag=     1.9618
