       N       E                     dE             d eps       ncg     rms          rms(c)
DAV:   1    -0.116131687038E+04   -0.11613E+04   -0.92227E-06  3704   0.763E-03    0.762E-03
RMM:   2    -0.116131687109E+04   -0.70910E-06   -0.59995E-06  2955   0.429E-03    0.917E-03
RMM:   3    -0.116131687151E+04   -0.41976E-06   -0.33733E-06  2210   0.263E-03    0.300E-03
RMM:   4    -0.116131687183E+04   -0.31918E-06   -0.16986E-06  1726   0.273E-03    0.256E-03
RMM:   5    -0.116131687209E+04   -0.26482E-06   -0.96405E-07  1236   0.210E-03    0.235E-03
RMM:   6    -0.116131687249E+04   -0.40048E-06   -0.92035E-07  1250   0.225E-03    0.198E-03
RMM:   7    -0.116131687284E+04   -0.34798E-06   -0.85264E-07  1213   0.210E-03    0.183E-03
RMM:   8    -0.116131687306E+04   -0.21650E-06   -0.54689E-07   956   0.205E-03
   1 F= -.11613169E+04 E0= -.11613169E+04  d E =-.116132E+04  mag=     8.0000
       N       E                     dE             d eps       ncg     rms          rms(c)
DAV:   1    -0.116131711660E+04   -0.24376E-03   -0.23407E-01  6280   0.557E-01    0.167E-01
RMM:   2    -0.116131733709E+04   -0.22050E-03   -0.79228E-03  6130   0.116E-01    0.175E-01
RMM:   3    -0.116131723856E+04    0.98529E-04   -0.40783E-04  5089   0.385E-02    0.119E-01
RMM:   4    -0.116131713091E+04    0.10766E-03   -0.32465E-04  5089   0.195E-02    0.668E-02
RMM:   5    -0.116131710217E+04    0.28738E-04   -0.67479E-05  3743   0.127E-02    0.198E-02
RMM:   6    -0.116131710261E+04   -0.44590E-06   -0.19821E-05  3428   0.625E-03    0.157E-02
RMM:   7    -0.116131710322E+04   -0.60209E-06   -0.70566E-06  3118   0.447E-03    0.126E-02
RMM:   8    -0.116131710378E+04   -0.56199E-06   -0.49249E-06  2985   0.306E-03
   2 F= -.11613171E+04 E0= -.11613171E+04  d E =-.230721E-03  mag=     8.0000
       N       E                     dE             d eps       ncg     rms          rms(c)
DAV:   1    -0.116131774899E+04   -0.64578E-03   -0.60009E-02  6272   0.279E-01    0.970E-02
RMM:   2    -0.116131776166E+04   -0.12668E-04   -0.23356E-03  6049   0.620E-02    0.105E-01
RMM:   3    -0.116131772027E+04    0.41394E-04   -0.10169E-04  3706   0.202E-02    0.719E-02
RMM:   4    -0.116131767908E+04    0.41188E-04   -0.10960E-04  3645   0.122E-02    0.427E-02
RMM:   5    -0.116131767190E+04    0.71762E-05   -0.32597E-05  3361   0.826E-03    0.226E-02
RMM:   6    -0.116131767186E+04    0.42157E-07   -0.98499E-06  2937   0.482E-03    0.139E-02
RMM:   7    -0.116131767198E+04   -0.11911E-06   -0.42184E-06  2419   0.334E-03    0.971E-03
RMM:   8    -0.116131767217E+04   -0.19083E-06   -0.25645E-06  2165   0.266E-03
   3 F= -.11613177E+04 E0= -.11613177E+04  d E =-.568392E-03  mag=     8.0000
       N       E                     dE             d eps       ncg     rms          rms(c)
DAV:   1    -0.116131778104E+04   -0.10907E-03   -0.45949E-02  6144   0.250E-01    0.613E-02
RMM:   2    -0.116131787104E+04   -0.89999E-04   -0.12550E-03  6052   0.461E-02    0.481E-02
RMM:   3    -0.116131786520E+04    0.58389E-05   -0.58955E-05  3429   0.169E-02    0.307E-02
RMM:   4    -0.116131785874E+04    0.64693E-05   -0.29646E-05  3372   0.700E-03    0.196E-02
RMM:   5    -0.116131785795E+04    0.78374E-06   -0.85827E-06  2969   0.459E-03    0.111E-02
RMM:   6    -0.116131785829E+04   -0.33955E-06   -0.39116E-06  2660   0.310E-03    0.654E-03
RMM:   7    -0.116131785848E+04   -0.19149E-06   -0.13775E-06  1686   0.251E-03    0.366E-03
RMM:   8    -0.116131785869E+04   -0.20638E-06   -0.61955E-07  1239   0.205E-03
   4 F= -.11613179E+04 E0= -.11613179E+04  d E =-.186519E-03  mag=     8.0000
