       N       E                     dE             d eps       ncg     rms          rms(c)
DAV:   1    -0.116064676724E+04   -0.11606E+04   -0.39554E-05  3952   0.171E-02    0.218E-02
RMM:   2    -0.116064676942E+04   -0.21823E-05   -0.26747E-05  3503   0.844E-03    0.255E-02
RMM:   3    -0.116064677079E+04   -0.13709E-05   -0.14542E-05  3307   0.528E-03    0.802E-03
RMM:   4    -0.116064677252E+04   -0.17307E-05   -0.90478E-06  3183   0.523E-03    0.854E-03
RMM:   5    -0.116064677412E+04   -0.15975E-05   -0.72356E-06  2837   0.360E-03    0.595E-03
RMM:   6    -0.116064677613E+04   -0.20063E-05   -0.47238E-06  2523   0.370E-03    0.448E-03
RMM:   7    -0.116064677810E+04   -0.19718E-05   -0.37921E-06  2229   0.285E-03    0.482E-03
RMM:   8    -0.116064677982E+04   -0.17255E-05   -0.27267E-06  2074   0.279E-03
   1 F= -.11606468E+04 E0= -.11606468E+04  d E =-.116065E+04  mag=     8.0000
       N       E                     dE             d eps       ncg     rms          rms(c)
DAV:   1    -0.116065409348E+04   -0.73154E-02   -0.78289E+00  6400   0.326E+00    0.963E-01
RMM:   2    -0.116066800192E+04   -0.13908E-01   -0.24628E-01  6154   0.653E-01    0.992E-01
RMM:   3    -0.116066663239E+04    0.13695E-02   -0.13783E-02  6464   0.220E-01    0.672E-01
RMM:   4    -0.116066461516E+04    0.20172E-02   -0.73329E-03  6704   0.946E-02    0.407E-01
RMM:   5    -0.116066378805E+04    0.82711E-03   -0.18911E-03  6212   0.554E-02    0.905E-02
RMM:   6    -0.116066377346E+04    0.14590E-04   -0.41663E-04  5164   0.199E-02    0.655E-02
RMM:   7    -0.116066377395E+04   -0.48522E-06   -0.76735E-05  3931   0.130E-02    0.464E-02
RMM:   8    -0.116066378164E+04   -0.76922E-05   -0.56447E-05  3698   0.975E-03
   2 F= -.11606638E+04 E0= -.11606638E+04  d E =-.170018E-01  mag=     8.0000
       N       E                     dE             d eps       ncg     rms          rms(c)
DAV:   1    -0.116067583865E+04   -0.12065E-01   -0.18654E+00  6448   0.160E+00    0.436E-01
RMM:   2    -0.116067825362E+04   -0.24150E-02   -0.60356E-02  6154   0.323E-01    0.481E-01
RMM:   3    -0.116067779066E+04    0.46297E-03   -0.33982E-03  6435   0.107E-01    0.337E-01
RMM:   4    -0.116067721776E+04    0.57290E-03   -0.18373E-03  5991   0.474E-02    0.216E-01
RMM:   5    -0.116067692010E+04    0.29766E-03   -0.53473E-04  5283   0.311E-02    0.526E-02
RMM:   6    -0.116067691055E+04    0.95434E-05   -0.10940E-04  4037   0.128E-02    0.398E-02
RMM:   7    -0.116067691255E+04   -0.20007E-05   -0.34985E-05  3606   0.101E-02    0.309E-02
RMM:   8    -0.116067691573E+04   -0.31771E-05   -0.27175E-05  3568   0.700E-03
   3 F= -.11606769E+04 E0= -.11606769E+04  d E =-.131341E-01  mag=     8.0000
       N       E                     dE             d eps       ncg     rms          rms(c)
DAV:   1    -0.116068188696E+04   -0.49744E-02   -0.20569E+00  6400   0.168E+00    0.382E-01
RMM:   2    -0.116068655250E+04   -0.46655E-02   -0.51287E-02  6385   0.290E-01    0.252E-01
RMM:   3    -0.116068657169E+04   -0.19193E-04   -0.26892E-03  6461   0.996E-02    0.157E-01
RMM:   4    -0.116068641293E+04    0.15876E-03   -0.75897E-04  6059   0.334E-02    0.723E-02
RMM:   5    -0.116068640360E+04    0.93329E-05   -0.18053E-04  3894   0.190E-02    0.216E-02
RMM:   6    -0.116068640943E+04   -0.58267E-05   -0.52892E-05  3567   0.119E-02    0.149E-02
RMM:   7    -0.116068641364E+04   -0.42170E-05   -0.33307E-05  3493   0.835E-03    0.133E-02
RMM:   8    -0.116068641710E+04   -0.34545E-05   -0.19955E-05  3411   0.676E-03
   4 F= -.11606864E+04 E0= -.11606864E+04  d E =-.950137E-02  mag=     8.0000
       N       E                     dE             d eps       ncg     rms          rms(c)
DAV:   1    -0.116068991973E+04   -0.35061E-02   -0.15311E+00  6384   0.145E+00    0.327E-01
RMM:   2    -0.116069363153E+04   -0.37118E-02   -0.39154E-02  6493   0.254E-01    0.218E-01
RMM:   3    -0.116069366467E+04   -0.33146E-04   -0.20012E-03  6441   0.826E-02    0.133E-01
RMM:   4    -0.116069356722E+04    0.97458E-04   -0.49633E-04  5349   0.283E-02    0.652E-02
RMM:   5    -0.116069356260E+04    0.46189E-05   -0.13337E-04  3666   0.174E-02    0.179E-02
RMM:   6    -0.116069356829E+04   -0.56950E-05   -0.43350E-05  3550   0.110E-02    0.134E-02
RMM:   7    -0.116069357223E+04   -0.39417E-05   -0.28371E-05  3447   0.742E-03    0.111E-02
RMM:   8    -0.116069357560E+04   -0.33676E-05   -0.16086E-05  3359   0.634E-03
   5 F= -.11606936E+04 E0= -.11606936E+04  d E =-.715850E-02  mag=     8.0000
       N       E                     dE             d eps       ncg     rms          rms(c)
DAV:   1    -0.116067291092E+04    0.20661E-01   -0.16218E+01  6320   0.470E+00    0.102E+00
RMM:   2    -0.116071256797E+04   -0.39657E-01   -0.39802E-01  6517   0.805E-01    0.621E-01
RMM:   3    -0.116071326562E+04   -0.69766E-03   -0.19715E-02  6783   0.259E-01    0.377E-01
RMM:   4    -0.116071253527E+04    0.73035E-03   -0.49215E-03  8043   0.824E-02    0.177E-01
RMM:   5    -0.116071253241E+04    0.28662E-05   -0.14301E-03  7388   0.347E-02    0.426E-02
RMM:   6    -0.116071254398E+04   -0.11574E-04   -0.19998E-04  4276   0.184E-02    0.269E-02
RMM:   7    -0.116071256182E+04   -0.17841E-04   -0.12005E-04  3822   0.130E-02    0.178E-02
RMM:   8    -0.116071257158E+04   -0.97619E-05   -0.70138E-05  3637   0.108E-02
   6 F= -.11607126E+04 E0= -.11607126E+04  d E =-.189960E-01  mag=     8.0000
       N       E                     dE             d eps       ncg     rms          rms(c)
DAV:   1    -0.116070449220E+04    0.80696E-02   -0.73071E+00  6296   0.315E+00    0.655E-01
RMM:   2    -0.116072234980E+04   -0.17858E-01   -0.17999E-01  6526   0.539E-01    0.394E-01
RMM:   3    -0.116072259263E+04   -0.24283E-03   -0.88470E-03  6810   0.171E-01    0.240E-01
RMM:   4    -0.116072228850E+04    0.30413E-03   -0.21852E-03  7834   0.548E-02    0.118E-01
RMM:   5    -0.116072228837E+04    0.13517E-06   -0.67477E-04  6262   0.247E-02    0.287E-02
RMM:   6    -0.116072229489E+04   -0.65248E-05   -0.84857E-05  3720   0.139E-02    0.180E-02
RMM:   7    -0.116072230726E+04   -0.12369E-04   -0.64464E-05  3651   0.101E-02    0.117E-02
RMM:   8    -0.116072231488E+04   -0.76151E-05   -0.39955E-05  3544   0.847E-03
   7 F= -.11607223E+04 E0= -.11607223E+04  d E =-.974329E-02  mag=     8.0000
       N       E                     dE             d eps       ncg     rms          rms(c)
DAV:   1    -0.116072193245E+04    0.37481E-03   -0.20005E+00  6352   0.163E+00    0.335E-01
RMM:   2    -0.116072686448E+04   -0.49320E-02   -0.48611E-02  6523   0.279E-01    0.198E-01
RMM:   3    -0.116072693470E+04   -0.70217E-04   -0.23787E-03  6529   0.872E-02    0.117E-01
RMM:   4    -0.116072684271E+04    0.91985E-04   -0.50701E-04  5415   0.285E-02    0.598E-02
RMM:   5    -0.116072684253E+04    0.18463E-06   -0.16991E-04  3765   0.176E-02    0.180E-02
RMM:   6    -0.116072685069E+04   -0.81624E-05   -0.44659E-05  3549   0.115E-02    0.123E-02
RMM:   7    -0.116072685740E+04   -0.67101E-05   -0.32790E-05  3466   0.761E-03    0.944E-03
RMM:   8    -0.116072686419E+04   -0.67951E-05   -0.19736E-05  3409   0.704E-03
   8 F= -.11607269E+04 E0= -.11607269E+04  d E =-.454932E-02  mag=     8.0000
       N       E                     dE             d eps       ncg     rms          rms(c)
DAV:   1    -0.116072351473E+04    0.33427E-02   -0.35651E+00  6272   0.217E+00    0.424E-01
RMM:   2    -0.116073212849E+04   -0.86138E-02   -0.86201E-02  6543   0.372E-01    0.250E-01
RMM:   3    -0.116073222303E+04   -0.94544E-04   -0.41740E-03  6639   0.116E-01    0.151E-01
RMM:   4    -0.116073207857E+04    0.14446E-03   -0.91427E-04  6399   0.371E-02    0.789E-02
RMM:   5    -0.116073207557E+04    0.29974E-05   -0.29598E-04  4375   0.202E-02    0.200E-02
RMM:   6    -0.116073208428E+04   -0.87020E-05   -0.51254E-05  3572   0.124E-02    0.129E-02
RMM:   7    -0.116073209360E+04   -0.93251E-05   -0.40782E-05  3506   0.823E-03    0.987E-03
RMM:   8    -0.116073209980E+04   -0.61987E-05   -0.23368E-05  3400   0.709E-03
   9 F= -.11607321E+04 E0= -.11607321E+04  d E =-.523561E-02  mag=     8.0000
       N       E                     dE             d eps       ncg     rms          rms(c)
DAV:   1    -0.116072871419E+04    0.33794E-02   -0.32508E+00  6368   0.207E+00    0.399E-01
RMM:   2    -0.116073655471E+04   -0.78405E-02   -0.78719E-02  6541   0.356E-01    0.232E-01
RMM:   3    -0.116073663225E+04   -0.77535E-04   -0.37896E-03  6639   0.110E-01    0.140E-01
RMM:   4    -0.116073650686E+04    0.12539E-03   -0.82036E-04  6228   0.351E-02    0.742E-02
RMM:   5    -0.116073650475E+04    0.21120E-05   -0.26746E-04  4217   0.196E-02    0.195E-02
RMM:   6    -0.116073651423E+04   -0.94756E-05   -0.49923E-05  3562   0.122E-02    0.129E-02
RMM:   7    -0.116073652413E+04   -0.99028E-05   -0.39809E-05  3498   0.817E-03    0.943E-03
RMM:   8    -0.116073653182E+04   -0.76897E-05   -0.24210E-05  3408   0.710E-03
  10 F= -.11607365E+04 E0= -.11607365E+04  d E =-.443202E-02  mag=     8.0000
       N       E                     dE             d eps       ncg     rms          rms(c)
DAV:   1    -0.116073235207E+04    0.41721E-02   -0.34654E+00  6352   0.213E+00    0.411E-01
RMM:   2    -0.116074068031E+04   -0.83282E-02   -0.83338E-02  6537   0.365E-01    0.239E-01
RMM:   3    -0.116074076067E+04   -0.80360E-04   -0.40031E-03  6630   0.113E-01    0.143E-01
RMM:   4    -0.116074062583E+04    0.13484E-03   -0.87367E-04  6344   0.362E-02    0.755E-02
RMM:   5    -0.116074062313E+04    0.27051E-05   -0.28900E-04  4343   0.199E-02    0.201E-02
RMM:   6    -0.116074063255E+04   -0.94254E-05   -0.50221E-05  3567   0.121E-02    0.132E-02
RMM:   7    -0.116074064297E+04   -0.10412E-04   -0.40742E-05  3502   0.819E-03    0.993E-03
RMM:   8    -0.116074065058E+04   -0.76181E-05   -0.23104E-05  3402   0.703E-03
  11 F= -.11607407E+04 E0= -.11607407E+04  d E =-.411876E-02  mag=     8.0000
       N       E                     dE             d eps       ncg     rms          rms(c)
DAV:   1    -0.116073800149E+04    0.26415E-02   -0.24001E+00  6432   0.177E+00    0.337E-01
RMM:   2    -0.116074374422E+04   -0.57427E-02   -0.57838E-02  6542   0.303E-01    0.196E-01
RMM:   3    -0.116074378276E+04   -0.38542E-04   -0.27593E-03  6545   0.932E-02    0.118E-01
RMM:   4    -0.116074368913E+04    0.93628E-04   -0.58007E-04  5574   0.302E-02    0.625E-02
RMM:   5    -0.116074369101E+04   -0.18762E-05   -0.19487E-04  3836   0.181E-02    0.172E-02
RMM:   6    -0.116074370047E+04   -0.94637E-05   -0.45411E-05  3536   0.115E-02    0.125E-02
RMM:   7    -0.116074370871E+04   -0.82356E-05   -0.32642E-05  3438   0.754E-03    0.943E-03
RMM:   8    -0.116074371730E+04   -0.85910E-05   -0.21502E-05  3391   0.700E-03
  12 F= -.11607437E+04 E0= -.11607437E+04  d E =-.306672E-02  mag=     8.0000
       N       E                     dE             d eps       ncg     rms          rms(c)
DAV:   1    -0.116074334418E+04    0.36453E-03   -0.88656E-01  6464   0.108E+00    0.206E-01
RMM:   2    -0.116074548825E+04   -0.21441E-02   -0.21430E-02  6550   0.185E-01    0.121E-01
RMM:   3    -0.116074550763E+04   -0.19377E-04   -0.10354E-03  5660   0.570E-02    0.726E-02
RMM:   4    -0.116074547279E+04    0.34837E-04   -0.18436E-04  3831   0.194E-02    0.397E-02
RMM:   5    -0.116074547885E+04   -0.60592E-05   -0.90718E-05  3565   0.130E-02    0.121E-02
RMM:   6    -0.116074548524E+04   -0.63881E-05   -0.28340E-05  3466   0.882E-03    0.111E-02
RMM:   7    -0.116074548939E+04   -0.41560E-05   -0.17950E-05  3288   0.542E-03    0.838E-03
RMM:   8    -0.116074549451E+04   -0.51192E-05   -0.11166E-05  3118   0.549E-03
  13 F= -.11607455E+04 E0= -.11607455E+04  d E =-.177721E-02  mag=     8.0000
       N       E                     dE             d eps       ncg     rms          rms(c)
DAV:   1    -0.116074457420E+04    0.91520E-03   -0.11490E+00  6376   0.122E+00    0.238E-01
RMM:   2    -0.116074734254E+04   -0.27683E-02   -0.27507E-02  6527   0.209E-01    0.137E-01
RMM:   3    -0.116074736924E+04   -0.26702E-04   -0.13220E-03  6010   0.643E-02    0.811E-02
RMM:   4    -0.116074732070E+04    0.48545E-04   -0.24080E-04  4037   0.213E-02    0.425E-02
RMM:   5    -0.116074732399E+04   -0.32956E-05   -0.10401E-04  3589   0.141E-02    0.132E-02
RMM:   6    -0.116074733052E+04   -0.65273E-05   -0.31445E-05  3471   0.935E-03    0.121E-02
RMM:   7    -0.116074733459E+04   -0.40646E-05   -0.19359E-05  3328   0.583E-03    0.836E-03
RMM:   8    -0.116074733965E+04   -0.50686E-05   -0.12280E-05  3130   0.579E-03
  14 F= -.11607473E+04 E0= -.11607473E+04  d E =-.184514E-02  mag=     8.0000
       N       E                     dE             d eps       ncg     rms          rms(c)
DAV:   1    -0.116074600678E+04    0.13278E-02   -0.13742E+00  6320   0.134E+00    0.260E-01
RMM:   2    -0.116074929662E+04   -0.32898E-02   -0.32975E-02  6519   0.228E-01    0.151E-01
RMM:   3    -0.116074931958E+04   -0.22962E-04   -0.15792E-03  6215   0.705E-02    0.897E-02
RMM:   4    -0.116074926078E+04    0.58797E-04   -0.30813E-04  4368   0.232E-02    0.469E-02
RMM:   5    -0.116074926261E+04   -0.18303E-05   -0.11493E-04  3604   0.149E-02    0.140E-02
RMM:   6    -0.116074926917E+04   -0.65617E-05   -0.34657E-05  3496   0.978E-03    0.122E-02
RMM:   7    -0.116074927327E+04   -0.40926E-05   -0.21153E-05  3345   0.617E-03    0.876E-03
RMM:   8    -0.116074927843E+04   -0.51640E-05   -0.13597E-05  3262   0.607E-03
  15 F= -.11607493E+04 E0= -.11607493E+04  d E =-.193878E-02  mag=     8.0000
