       N       E                     dE             d eps       ncg     rms          rms(c)
DAV:   1    -0.116400103911E+04   -0.11640E+04   -0.14321E-06  3672   0.266E-03    0.454E-03
RMM:   2    -0.116400103913E+04   -0.18917E-07   -0.45981E-07   985   0.173E-03    0.876E-03
RMM:   3    -0.116400103906E+04    0.68845E-07   -0.38532E-08   566   0.142E-03    0.285E-03
RMM:   4    -0.116400103905E+04    0.10274E-07   -0.55219E-09   466   0.138E-03    0.187E-03
RMM:   5    -0.116400103905E+04    0.27503E-08   -0.52515E-09   441   0.137E-03    0.110E-03
RMM:   6    -0.116400103904E+04    0.54279E-08   -0.20554E-08   449   0.136E-03    0.442E-04
RMM:   7    -0.116400103904E+04    0.87311E-10   -0.31046E-09   404   0.134E-03    0.420E-04
RMM:   8    -0.116400103905E+04   -0.10332E-08    0.00000E+00   388   0.134E-03
   1 F= -.11640010E+04 E0= -.11640010E+04  d E =-.116400E+04  mag=     6.0000
       N       E                     dE             d eps       ncg     rms          rms(c)
DAV:   1    -0.116400122224E+04   -0.18319E-03   -0.16893E-01  6272   0.483E-01    0.144E-01
RMM:   2    -0.116400149098E+04   -0.26874E-03   -0.52569E-03  6138   0.948E-02    0.124E-01
RMM:   3    -0.116400144305E+04    0.47927E-04   -0.21399E-04  4096   0.328E-02    0.796E-02
RMM:   4    -0.116400139017E+04    0.52887E-04   -0.16672E-04  3684   0.169E-02    0.524E-02
RMM:   5    -0.116400138211E+04    0.80588E-05   -0.50584E-05  3523   0.122E-02    0.432E-02
RMM:   6    -0.116400138211E+04   -0.62573E-08   -0.20698E-05  3419   0.699E-03    0.137E-02
RMM:   7    -0.116400138275E+04   -0.63966E-06   -0.78540E-06  3135   0.494E-03    0.116E-02
RMM:   8    -0.116400138302E+04   -0.26665E-06   -0.46143E-06  2832   0.327E-03
   2 F= -.11640014E+04 E0= -.11640014E+04  d E =-.343974E-03  mag=     6.0000
       N       E                     dE             d eps       ncg     rms          rms(c)
DAV:   1    -0.116400177747E+04   -0.39472E-03   -0.37901E-02  6080   0.226E-01    0.722E-02
RMM:   2    -0.116400180045E+04   -0.22983E-04   -0.13471E-03  6027   0.479E-02    0.731E-02
RMM:   3    -0.116400178118E+04    0.19275E-04   -0.53400E-05  3457   0.162E-02    0.479E-02
RMM:   4    -0.116400176059E+04    0.20585E-04   -0.56038E-05  3442   0.934E-03    0.305E-02
RMM:   5    -0.116400175686E+04    0.37318E-05   -0.17912E-05  3276   0.710E-03    0.245E-02
RMM:   6    -0.116400175660E+04    0.26282E-06   -0.74039E-06  2684   0.414E-03    0.873E-03
RMM:   7    -0.116400175681E+04   -0.21598E-06   -0.25836E-06  2368   0.318E-03    0.669E-03
RMM:   8    -0.116400175687E+04   -0.56185E-07   -0.11221E-06  1757   0.220E-03
   3 F= -.11640018E+04 E0= -.11640018E+04  d E =-.373851E-03  mag=     6.0000
