       N       E                     dE             d eps       ncg     rms          rms(c)
DAV:   1    -0.116026873233E+04   -0.11603E+04   -0.70795E-06  7456   0.569E-03    0.553E-03
RMM:   2    -0.116026873263E+04   -0.30136E-06   -0.33650E-06  5489   0.325E-03    0.731E-03
RMM:   3    -0.116026873274E+04   -0.10947E-06   -0.89354E-07  3232   0.201E-03    0.216E-03
RMM:   4    -0.116026873285E+04   -0.10683E-06   -0.39133E-07  2472   0.198E-03    0.187E-03
RMM:   5    -0.116026873293E+04   -0.84197E-07   -0.18297E-07  2012   0.187E-03    0.128E-03
RMM:   6    -0.116026873308E+04   -0.14879E-06   -0.19345E-07  1909   0.188E-03    0.998E-04
RMM:   7    -0.116026873321E+04   -0.12842E-06   -0.21857E-07  1811   0.187E-03    0.908E-04
RMM:   8    -0.116026873332E+04   -0.11375E-06   -0.18697E-07  1733   0.187E-03
   1 F= -.11602687E+04 E0= -.11602686E+04  d E =-.116027E+04  mag=     8.0003
       N       E                     dE             d eps       ncg     rms          rms(c)
DAV:   1    -0.116026982046E+04   -0.10873E-02   -0.89222E-01 12800   0.111E+00    0.346E-01
RMM:   2    -0.116027172949E+04   -0.19090E-02   -0.27413E-02 12292   0.213E-01    0.333E-01
RMM:   3    -0.116027155204E+04    0.17746E-03   -0.14000E-03 12556   0.673E-02    0.213E-01
RMM:   4    -0.116027134963E+04    0.20241E-03   -0.75714E-04 10762   0.299E-02    0.109E-01
RMM:   5    -0.116027128169E+04    0.67934E-04   -0.17068E-04  8293   0.202E-02    0.334E-02
RMM:   6    -0.116027128697E+04   -0.52772E-05   -0.46242E-05  7207   0.999E-03    0.239E-02
RMM:   7    -0.116027128836E+04   -0.13897E-05   -0.21901E-05  6982   0.701E-03    0.198E-02
RMM:   8    -0.116027128944E+04   -0.10858E-05   -0.12178E-05  6777   0.523E-03
   2 F= -.11602713E+04 E0= -.11602713E+04  d E =-.255612E-02  mag=     8.0001
       N       E                     dE             d eps       ncg     rms          rms(c)
DAV:   1    -0.116027269742E+04   -0.14091E-02   -0.20607E-01 12608   0.524E-01    0.177E-01
RMM:   2    -0.116027304534E+04   -0.34791E-03   -0.67847E-03 12250   0.107E-01    0.188E-01
RMM:   3    -0.116027297592E+04    0.69420E-04   -0.30477E-04  9170   0.342E-02    0.124E-01
RMM:   4    -0.116027290890E+04    0.67015E-04   -0.23198E-04  8654   0.172E-02    0.640E-02
RMM:   5    -0.116027288558E+04    0.23320E-04   -0.59857E-05  7313   0.113E-02    0.251E-02
RMM:   6    -0.116027288677E+04   -0.11850E-05   -0.17614E-05  6639   0.609E-03    0.153E-02
RMM:   7    -0.116027288732E+04   -0.55697E-06   -0.76953E-06  6164   0.436E-03    0.104E-02
RMM:   8    -0.116027288786E+04   -0.53452E-06   -0.51862E-06  5917   0.332E-03
   3 F= -.11602729E+04 E0= -.11602729E+04  d E =-.159841E-02  mag=     8.0001
       N       E                     dE             d eps       ncg     rms          rms(c)
DAV:   1    -0.116027309619E+04   -0.20886E-03   -0.45300E-01 12672   0.785E-01    0.251E-01
RMM:   2    -0.116027448757E+04   -0.13914E-02   -0.11655E-02 12717   0.138E-01    0.152E-01
RMM:   3    -0.116027455071E+04   -0.63137E-04   -0.60729E-04 10560   0.483E-02    0.859E-02
RMM:   4    -0.116027451758E+04    0.33129E-04   -0.16351E-04  7425   0.172E-02    0.378E-02
RMM:   5    -0.116027452246E+04   -0.48781E-05   -0.56942E-05  7121   0.113E-02    0.146E-02
RMM:   6    -0.116027452484E+04   -0.23869E-05   -0.20711E-05  6899   0.733E-03    0.111E-02
RMM:   7    -0.116027452626E+04   -0.14195E-05   -0.12629E-05  6485   0.499E-03    0.710E-03
RMM:   8    -0.116027452725E+04   -0.99147E-06   -0.71881E-06  6060   0.439E-03
   4 F= -.11602745E+04 E0= -.11602745E+04  d E =-.163940E-02  mag=     8.0001
       N       E                     dE             d eps       ncg     rms          rms(c)
DAV:   1    -0.116027397226E+04    0.55401E-03   -0.69418E-01 12688   0.971E-01    0.309E-01
RMM:   2    -0.116027611144E+04   -0.21392E-02   -0.17553E-02 12678   0.167E-01    0.181E-01
RMM:   3    -0.116027622201E+04   -0.11056E-03   -0.96070E-04 11632   0.598E-02    0.101E-01
RMM:   4    -0.116027617904E+04    0.42968E-04   -0.23766E-04  7942   0.201E-02    0.443E-02
RMM:   5    -0.116027618695E+04   -0.79152E-05   -0.78004E-05  7247   0.135E-02    0.198E-02
RMM:   6    -0.116027619054E+04   -0.35852E-05   -0.29794E-05  6965   0.859E-03    0.132E-02
RMM:   7    -0.116027619267E+04   -0.21295E-05   -0.18602E-05  6738   0.624E-03    0.809E-03
RMM:   8    -0.116027619417E+04   -0.15034E-05   -0.11320E-05  6468   0.520E-03
   5 F= -.11602762E+04 E0= -.11602762E+04  d E =-.166692E-02  mag=     8.0000
       N       E                     dE             d eps       ncg     rms          rms(c)
DAV:   1    -0.116027597010E+04    0.22256E-03   -0.33815E-01 12688   0.675E-01    0.218E-01
RMM:   2    -0.116027705352E+04   -0.10834E-02   -0.86498E-03 12774   0.117E-01    0.128E-01
RMM:   3    -0.116027709905E+04   -0.45531E-04   -0.40513E-04  9223   0.392E-02    0.703E-02
RMM:   4    -0.116027707996E+04    0.19096E-04   -0.12254E-04  7289   0.149E-02    0.315E-02
RMM:   5    -0.116027708567E+04   -0.57122E-05   -0.44954E-05  7085   0.100E-02    0.186E-02
RMM:   6    -0.116027708785E+04   -0.21782E-05   -0.17724E-05  6821   0.672E-03    0.105E-02
RMM:   7    -0.116027708918E+04   -0.13311E-05   -0.10782E-05  6454   0.488E-03    0.744E-03
RMM:   8    -0.116027709023E+04   -0.10499E-05   -0.68362E-06  5789   0.420E-03
   6 F= -.11602771E+04 E0= -.11602771E+04  d E =-.896058E-03  mag=     8.0000
