       N       E                     dE             d eps       ncg     rms          rms(c)
DAV:   1    -0.116026645487E+04   -0.11603E+04   -0.86358E-03 17368   0.285E-01    0.515E-01
RMM:   2    -0.116026689365E+04   -0.43878E-03   -0.13466E-02 12098   0.111E-01    0.127E+00
RMM:   3    -0.116026735527E+04   -0.46162E-03   -0.27550E-03 10255   0.555E-02    0.454E-01
RMM:   4    -0.116026793160E+04   -0.57633E-03   -0.74622E-04  9407   0.244E-02    0.374E-01
RMM:   5    -0.116026789505E+04    0.36546E-04   -0.42850E-05  7099   0.827E-03    0.378E-01
RMM:   6    -0.116026784699E+04    0.48066E-04   -0.95639E-06  5812   0.464E-03    0.378E-01
RMM:   7    -0.116026783918E+04    0.78049E-05   -0.38018E-06  4919   0.315E-03    0.380E-01
RMM:   8    -0.116026769237E+04    0.14682E-03   -0.97588E-05  6901   0.114E-02    0.477E-01
RMM:   9    -0.116026864354E+04   -0.95117E-03   -0.79905E-04 10556   0.309E-02    0.100E+00
RMM:  10    -0.116026915717E+04   -0.51363E-03   -0.90965E-05  7404   0.139E-02    0.105E+00
RMM:  11    -0.116026865248E+04    0.50469E-03   -0.58047E-05  6807   0.113E-02    0.106E+00
RMM:  12    -0.116026755329E+04    0.10992E-02   -0.28612E-04  8158   0.180E-02    0.113E+00
RMM:  13    -0.116026611484E+04    0.14384E-02   -0.35517E-04  9076   0.217E-02    0.116E+00
RMM:  14    -0.116026662094E+04   -0.50611E-03   -0.18987E-04  7316   0.154E-02    0.112E+00
RMM:  15    -0.116026735822E+04   -0.73728E-03   -0.14147E-04  7508   0.118E-02    0.116E+00
RMM:  16    -0.116026522177E+04    0.21364E-02   -0.69137E-04 10026   0.345E-02    0.990E-01
RMM:  17    -0.116026244627E+04    0.27755E-02   -0.25073E-03 11753   0.575E-02    0.637E-01
RMM:  18    -0.116026290521E+04   -0.45895E-03   -0.38916E-04  8396   0.250E-02    0.528E-01
RMM:  19    -0.116026249601E+04    0.40920E-03   -0.13772E-03 10668   0.457E-02    0.559E-01
RMM:  20    -0.116026216484E+04    0.33116E-03   -0.53013E-04  9047   0.272E-02    0.336E-01
RMM:  21    -0.116026211622E+04    0.48623E-04   -0.70889E-04  9928   0.241E-02
   1 F= -.11602621E+04 E0= -.11602538E+04  d E =-.116026E+04  mag=     8.9941
       N       E                     dE             d eps       ncg     rms          rms(c)
DAV:   1    -0.116026373706E+04   -0.15722E-02   -0.16594E+00 12784   0.149E+00    0.423E-01
RMM:   2    -0.116026679442E+04   -0.30574E-02   -0.51624E-02 12307   0.299E-01    0.461E-01
RMM:   3    -0.116026685360E+04   -0.59174E-04   -0.29704E-03 12865   0.958E-02    0.326E-01
RMM:   4    -0.116026819221E+04   -0.13386E-02   -0.12722E-03 11499   0.449E-02    0.307E-01
RMM:   5    -0.116027024927E+04   -0.20571E-02   -0.79678E-04 10498   0.373E-02    0.282E-01
RMM:   6    -0.116027041890E+04   -0.16963E-03   -0.10950E-04  7950   0.134E-02    0.277E-01
RMM:   7    -0.116027096774E+04   -0.54884E-03   -0.54347E-05  7538   0.945E-03    0.288E-01
RMM:   8    -0.116026958957E+04    0.13782E-02   -0.27953E-04  8223   0.196E-02    0.291E-01
RMM:   9    -0.116026768238E+04    0.19072E-02   -0.73926E-04 10166   0.282E-02    0.330E-01
RMM:  10    -0.116026701296E+04    0.66942E-03   -0.34923E-04  9010   0.233E-02    0.404E-01
RMM:  11    -0.116026749666E+04   -0.48370E-03   -0.34980E-04  8333   0.203E-02    0.323E-01
RMM:  12    -0.116026941512E+04   -0.19185E-02   -0.83131E-04 10301   0.296E-02    0.447E-01
RMM:  13    -0.116026756195E+04    0.18532E-02   -0.80620E-03 12041   0.102E-01    0.942E-01
RMM:  14    -0.116026545399E+04    0.21080E-02   -0.22207E-03 10568   0.528E-02    0.158E-01
RMM:  15    -0.116026583608E+04   -0.38209E-03   -0.73625E-04 10140   0.288E-02    0.130E-01
RMM:  16    -0.116026561043E+04    0.22566E-03   -0.85464E-05  7342   0.136E-02    0.903E-02
RMM:  17    -0.116026543755E+04    0.17287E-03   -0.13153E-04  7456   0.138E-02    0.742E-02
RMM:  18    -0.116026544543E+04   -0.78763E-05   -0.43431E-05  6843   0.943E-03
   2 F= -.11602654E+04 E0= -.11602572E+04  d E =-.332921E-02  mag=     8.9959
       N       E                     dE             d eps       ncg     rms          rms(c)
DAV:   1    -0.116026805994E+04   -0.26224E-02   -0.38340E-01 12736   0.708E-01    0.261E-01
RMM:   2    -0.116026855123E+04   -0.49129E-03   -0.14364E-02 12277   0.154E-01    0.448E-01
RMM:   3    -0.116026863142E+04   -0.80199E-04   -0.76818E-04 11392   0.487E-02    0.228E-01
RMM:   4    -0.116026918425E+04   -0.55282E-03   -0.30534E-04  9493   0.221E-02    0.270E-01
RMM:   5    -0.116026886380E+04    0.32045E-03   -0.83186E-05  7420   0.135E-02    0.224E-01
RMM:   6    -0.116026854630E+04    0.31750E-03   -0.17184E-04  7752   0.130E-02    0.191E-01
RMM:   7    -0.116026821128E+04    0.33502E-03   -0.67254E-04 10367   0.245E-02    0.105E-01
RMM:   8    -0.116026852950E+04   -0.31822E-03   -0.23946E-04  8666   0.202E-02    0.920E-02
RMM:   9    -0.116026853158E+04   -0.20792E-05   -0.37159E-05  6973   0.824E-03
   3 F= -.11602685E+04 E0= -.11602607E+04  d E =-.308615E-02  mag=     8.9950
       N       E                     dE             d eps       ncg     rms          rms(c)
DAV:   1    -0.116026949373E+04   -0.96423E-03   -0.34944E-01 12576   0.680E-01    0.175E-01
RMM:   2    -0.116027107278E+04   -0.15791E-02   -0.89266E-03 12638   0.121E-01    0.166E-01
RMM:   3    -0.116027184975E+04   -0.77696E-03   -0.50390E-04 10005   0.432E-02    0.169E-01
RMM:   4    -0.116027152677E+04    0.32298E-03   -0.81968E-05  7129   0.144E-02    0.162E-01
RMM:   5    -0.116027068909E+04    0.83767E-03   -0.11311E-04  7429   0.141E-02    0.163E-01
RMM:   6    -0.116027010948E+04    0.57961E-03   -0.17949E-04  8391   0.157E-02    0.181E-01
RMM:   7    -0.116027012067E+04   -0.11186E-04   -0.39199E-05  6766   0.882E-03    0.183E-01
RMM:   8    -0.116027014864E+04   -0.27974E-04   -0.42346E-05  6827   0.822E-03
   4 F= -.11602701E+04 E0= -.11602618E+04  d E =-.161706E-02  mag=     8.9952
       N       E                     dE             d eps       ncg     rms          rms(c)
DAV:   1    -0.116027140909E+04   -0.12884E-02   -0.19890E-01 12600   0.511E-01    0.232E-01
RMM:   2    -0.116027306851E+04   -0.16594E-02   -0.60387E-03 12392   0.993E-02    0.337E-01
RMM:   3    -0.116027244575E+04    0.62276E-03   -0.39439E-04  9246   0.340E-02    0.299E-01
RMM:   4    -0.116027139009E+04    0.10557E-02   -0.18085E-03 10536   0.440E-02    0.161E-01
RMM:   5    -0.116027157403E+04   -0.18394E-03   -0.24951E-04  8799   0.205E-02    0.203E-01
RMM:   6    -0.116027205865E+04   -0.48462E-03   -0.26205E-04  8787   0.190E-02    0.159E-01
RMM:   7    -0.116027227238E+04   -0.21374E-03   -0.48180E-05  7082   0.113E-02    0.183E-01
RMM:   8    -0.116027148442E+04    0.78797E-03   -0.34685E-04  9091   0.250E-02    0.216E-01
RMM:   9    -0.116027154156E+04   -0.57142E-04   -0.40362E-05  6934   0.915E-03
   5 F= -.11602715E+04 E0= -.11602641E+04  d E =-.139292E-02  mag=     8.9975
       N       E                     dE             d eps       ncg     rms          rms(c)
DAV:   1    -0.116027197783E+04   -0.49342E-03   -0.13002E-01 12680   0.413E-01    0.245E-01
RMM:   2    -0.116027251260E+04   -0.53477E-03   -0.46608E-03 12521   0.846E-02    0.387E-01
RMM:   3    -0.116027268193E+04   -0.16933E-03   -0.30803E-04  8332   0.308E-02    0.240E-01
RMM:   4    -0.116027331233E+04   -0.63040E-03   -0.22971E-04  8130   0.176E-02    0.211E-01
RMM:   5    -0.116027384410E+04   -0.53177E-03   -0.81077E-05  7215   0.100E-02    0.215E-01
RMM:   6    -0.116027197192E+04    0.18722E-02   -0.10081E-03 10496   0.413E-02    0.230E-01
RMM:   7    -0.116027205275E+04   -0.80827E-04   -0.14038E-04  7677   0.155E-02    0.255E-01
RMM:   8    -0.116027207988E+04   -0.27125E-04   -0.72417E-05  7058   0.101E-02
   6 F= -.11602721E+04 E0= -.11602637E+04  d E =-.538319E-03  mag=     8.9959
       N       E                     dE             d eps       ncg     rms          rms(c)
DAV:   1    -0.116027289577E+04   -0.84301E-03   -0.69257E-01 12744   0.949E-01    0.288E-01
RMM:   2    -0.116027515574E+04   -0.22600E-02   -0.18998E-02 12775   0.173E-01    0.406E-01
RMM:   3    -0.116027552463E+04   -0.36888E-03   -0.96348E-04 11200   0.540E-02    0.328E-01
RMM:   4    -0.116027706091E+04   -0.15363E-02   -0.84540E-04 10416   0.338E-02    0.475E-01
RMM:   5    -0.116027453090E+04    0.25300E-02   -0.47412E-03 10954   0.699E-02    0.190E-01
RMM:   6    -0.116027449573E+04    0.35167E-04   -0.58816E-04  9886   0.262E-02    0.163E-01
RMM:   7    -0.116027483994E+04   -0.34421E-03   -0.17963E-04  8340   0.168E-02    0.149E-01
RMM:   8    -0.116027505528E+04   -0.21534E-03   -0.45126E-05  7134   0.102E-02    0.156E-01
RMM:   9    -0.116027474470E+04    0.31058E-03   -0.47314E-05  7031   0.103E-02    0.145E-01
RMM:  10    -0.116027412706E+04    0.61764E-03   -0.31743E-04  8356   0.231E-02    0.159E-01
RMM:  11    -0.116027424164E+04   -0.11459E-03   -0.16609E-04  7522   0.151E-02    0.163E-01
RMM:  12    -0.116027412477E+04    0.11687E-03   -0.25760E-04  8402   0.169E-02    0.152E-01
RMM:  13    -0.116027398431E+04    0.14047E-03   -0.10135E-04  7937   0.128E-02    0.410E-02
RMM:  14    -0.116027398049E+04    0.38205E-05   -0.17821E-05  6452   0.668E-03
   7 F= -.11602740E+04 E0= -.11602657E+04  d E =-.190061E-02  mag=     8.9954
       N       E                     dE             d eps       ncg     rms          rms(c)
DAV:   1    -0.116027369194E+04    0.29236E-03   -0.14045E+00 12664   0.135E+00    0.241E-01
RMM:   2    -0.116027688233E+04   -0.31904E-02   -0.33843E-02 12821   0.229E-01    0.159E-01
RMM:   3    -0.116027686411E+04    0.18223E-04   -0.16184E-03 12023   0.744E-02    0.111E-01
RMM:   4    -0.116027682031E+04    0.43800E-04   -0.30342E-04  8707   0.221E-02    0.783E-02
RMM:   5    -0.116027681743E+04    0.28765E-05   -0.13531E-04  7309   0.157E-02    0.357E-02
RMM:   6    -0.116027686325E+04   -0.45822E-04   -0.45024E-05  7056   0.106E-02    0.328E-02
RMM:   7    -0.116027685583E+04    0.74206E-05   -0.21680E-05  6795   0.679E-03    0.307E-02
RMM:   8    -0.116027685388E+04    0.19514E-05   -0.12429E-05  6127   0.560E-03
   8 F= -.11602769E+04 E0= -.11602687E+04  d E =-.287340E-02  mag=     8.9949
       N       E                     dE             d eps       ncg     rms          rms(c)
DAV:   1    -0.116027279180E+04    0.40640E-02   -0.35079E+00 12608   0.213E+00    0.386E-01
RMM:   2    -0.116028096902E+04   -0.81772E-02   -0.84623E-02 12914   0.361E-01    0.257E-01
RMM:   3    -0.116028111041E+04   -0.14139E-03   -0.40171E-03 12979   0.116E-01    0.176E-01
RMM:   4    -0.116028155723E+04   -0.44682E-03   -0.94951E-04 13025   0.380E-02    0.163E-01
RMM:   5    -0.116028280345E+04   -0.12462E-02   -0.41710E-04 10110   0.262E-02    0.179E-01
RMM:   6    -0.116028264728E+04    0.15618E-03   -0.77523E-05  7337   0.123E-02    0.182E-01
RMM:   7    -0.116028225042E+04    0.39686E-03   -0.49201E-05  7132   0.982E-03    0.166E-01
RMM:   8    -0.116028101950E+04    0.12309E-02   -0.84999E-04 10396   0.347E-02    0.291E-01
RMM:   9    -0.116028121230E+04   -0.19280E-03   -0.25069E-04  8448   0.205E-02    0.344E-01
RMM:  10    -0.116028112723E+04    0.85074E-04   -0.11961E-04  7225   0.127E-02
   9 F= -.11602811E+04 E0= -.11602725E+04  d E =-.427334E-02  mag=     8.9960
       N       E                     dE             d eps       ncg     rms          rms(c)
DAV:   1    -0.116027967242E+04    0.15399E-02   -0.16154E+00 12672   0.144E+00    0.386E-01
RMM:   2    -0.116028409986E+04   -0.44274E-02   -0.44101E-02 12872   0.262E-01    0.629E-01
RMM:   3    -0.116028478549E+04   -0.68563E-03   -0.21569E-03 12873   0.795E-02    0.424E-01
RMM:   4    -0.116028656026E+04   -0.17748E-02   -0.10476E-03 11510   0.387E-02    0.592E-01
RMM:   5    -0.116028353291E+04    0.30273E-02   -0.58695E-03 11160   0.751E-02    0.253E-01
RMM:   6    -0.116028328121E+04    0.25170E-03   -0.74263E-04 10242   0.283E-02    0.198E-01
RMM:   7    -0.116028378140E+04   -0.50019E-03   -0.71185E-04 10487   0.310E-02    0.145E-01
RMM:   8    -0.116028413839E+04   -0.35698E-03   -0.11362E-04  7767   0.155E-02    0.160E-01
RMM:   9    -0.116028388280E+04    0.25558E-03   -0.49520E-05  7127   0.113E-02    0.150E-01
RMM:  10    -0.116028314212E+04    0.74068E-03   -0.29343E-04  8191   0.228E-02    0.197E-01
RMM:  11    -0.116028313911E+04    0.30063E-05   -0.12800E-04  7405   0.142E-02
  10 F= -.11602831E+04 E0= -.11602753E+04  d E =-.201189E-02  mag=     8.9954
       N       E                     dE             d eps       ncg     rms          rms(c)
DAV:   1    -0.116028160937E+04    0.15327E-02   -0.16539E+00 12616   0.146E+00    0.367E-01
RMM:   2    -0.116028611470E+04   -0.45053E-02   -0.42193E-02 12888   0.258E-01    0.505E-01
RMM:   3    -0.116028674894E+04   -0.63423E-03   -0.20895E-03 12316   0.839E-02    0.235E-01
RMM:   4    -0.116028813691E+04   -0.13880E-02   -0.57545E-04 11128   0.319E-02    0.239E-01
RMM:   5    -0.116028822597E+04   -0.89056E-04   -0.81473E-05  7330   0.126E-02    0.239E-01
RMM:   6    -0.116028817804E+04    0.47930E-04   -0.37604E-05  7063   0.961E-03    0.239E-01
RMM:   7    -0.116028691458E+04    0.12635E-02   -0.14047E-04  7937   0.156E-02    0.218E-01
RMM:   8    -0.116028593569E+04    0.97889E-03   -0.13420E-03 10811   0.426E-02    0.456E-01
RMM:   9    -0.116028591594E+04    0.19751E-04   -0.89420E-05  7544   0.143E-02
  11 F= -.11602859E+04 E0= -.11602776E+04  d E =-.277683E-02  mag=     8.9948
       N       E                     dE             d eps       ncg     rms          rms(c)
DAV:   1    -0.116028549972E+04    0.43596E-03   -0.80359E-01 12792   0.101E+00    0.468E-01
RMM:   2    -0.116028823953E+04   -0.27398E-02   -0.30205E-02 12549   0.213E-01    0.854E-01
RMM:   3    -0.116028900035E+04   -0.76082E-03   -0.17415E-03 12636   0.642E-02    0.579E-01
RMM:   4    -0.116029285723E+04   -0.38569E-02   -0.22151E-03 11231   0.529E-02    0.761E-01
RMM:   5    -0.116028647249E+04    0.63847E-02   -0.17288E-02 12057   0.131E-01    0.263E-01
RMM:   6    -0.116028702315E+04   -0.55066E-03   -0.11207E-03 10664   0.405E-02    0.230E-01
RMM:   7    -0.116028809890E+04   -0.10758E-02   -0.46612E-04  9729   0.265E-02    0.213E-01
RMM:   8    -0.116028829720E+04   -0.19830E-03   -0.60277E-05  7510   0.115E-02    0.218E-01
RMM:   9    -0.116028719261E+04    0.11046E-02   -0.50431E-04  9579   0.261E-02    0.217E-01
RMM:  10    -0.116028664180E+04    0.55081E-03   -0.54790E-04  9652   0.261E-02    0.271E-01
RMM:  11    -0.116028663067E+04    0.11128E-04   -0.82387E-05  7359   0.122E-02
  12 F= -.11602866E+04 E0= -.11602790E+04  d E =-.714736E-03  mag=     9.0033
       N       E                     dE             d eps       ncg     rms          rms(c)
DAV:   1    -0.116028696895E+04   -0.32715E-03   -0.27370E-01 12624   0.593E-01    0.291E-01
RMM:   2    -0.116028832555E+04   -0.13566E-02   -0.10155E-02 12371   0.125E-01    0.552E-01
RMM:   3    -0.116028873606E+04   -0.41051E-03   -0.72723E-04 10459   0.431E-02    0.305E-01
RMM:   4    -0.116028998725E+04   -0.12512E-02   -0.49269E-04  9539   0.268E-02    0.228E-01
RMM:   5    -0.116029039698E+04   -0.40974E-03   -0.68096E-05  7353   0.111E-02    0.238E-01
RMM:   6    -0.116028785024E+04    0.25467E-02   -0.65807E-04 10108   0.329E-02    0.211E-01
RMM:   7    -0.116028669601E+04    0.11542E-02   -0.61909E-04 10291   0.289E-02    0.290E-01
RMM:   8    -0.116028663338E+04    0.62636E-04   -0.46982E-04  9347   0.237E-02
  13 F= -.11602866E+04 E0= -.11602784E+04  d E =-.270257E-05  mag=     8.9993
       N       E                     dE             d eps       ncg     rms          rms(c)
DAV:   1    -0.116028683789E+04   -0.14187E-03   -0.69378E-01 12712   0.947E-01    0.336E-01
RMM:   2    -0.116028946326E+04   -0.26254E-02   -0.18430E-02 12686   0.172E-01    0.308E-01
RMM:   3    -0.116029067158E+04   -0.12083E-02   -0.12180E-03 11739   0.576E-02    0.275E-01
RMM:   4    -0.116029236116E+04   -0.16896E-02   -0.10836E-03 10480   0.374E-02    0.411E-01
RMM:   5    -0.116028871296E+04    0.36482E-02   -0.61194E-03 11375   0.813E-02    0.231E-01
RMM:   6    -0.116028810735E+04    0.60560E-03   -0.11811E-03 10477   0.363E-02    0.213E-01
RMM:   7    -0.116028829045E+04   -0.18310E-03   -0.49259E-04  9417   0.247E-02    0.181E-01
RMM:   8    -0.116028859246E+04   -0.30201E-03   -0.80544E-05  7535   0.134E-02    0.184E-01
RMM:   9    -0.116028883665E+04   -0.24419E-03   -0.34109E-05  6970   0.928E-03    0.177E-01
RMM:  10    -0.116028830340E+04    0.53325E-03   -0.61056E-05  6989   0.118E-02    0.156E-01
RMM:  11    -0.116028769270E+04    0.61070E-03   -0.54861E-04  9677   0.258E-02    0.105E-01
RMM:  12    -0.116028753478E+04    0.15792E-03   -0.19720E-03 10849   0.434E-02    0.161E-01
RMM:  13    -0.116028739150E+04    0.14328E-03   -0.13549E-04  8091   0.169E-02    0.868E-02
RMM:  14    -0.116028736141E+04    0.30090E-04   -0.48612E-05  7087   0.895E-03
  14 F= -.11602874E+04 E0= -.11602790E+04  d E =-.728030E-03  mag=     8.9978
       N       E                     dE             d eps       ncg     rms          rms(c)
DAV:   1    -0.116028672564E+04    0.66586E-03   -0.69699E-01 12592   0.947E-01    0.181E-01
RMM:   2    -0.116028837535E+04   -0.16497E-02   -0.16819E-02 12766   0.162E-01    0.131E-01
RMM:   3    -0.116028843591E+04   -0.60558E-04   -0.87837E-04 10783   0.538E-02    0.133E-01
RMM:   4    -0.116028848136E+04   -0.45448E-04   -0.12910E-04  7416   0.158E-02    0.124E-01
RMM:   5    -0.116028865997E+04   -0.17861E-03   -0.93945E-05  7298   0.128E-02    0.176E-01
RMM:   6    -0.116028843629E+04    0.22369E-03   -0.18878E-04  7757   0.173E-02    0.998E-02
RMM:   7    -0.116028834748E+04    0.88811E-04   -0.12792E-04  7385   0.117E-02    0.751E-02
RMM:   8    -0.116028836558E+04   -0.18101E-04   -0.49572E-05  6982   0.845E-03
  15 F= -.11602884E+04 E0= -.11602801E+04  d E =-.100417E-02  mag=     8.9972
       N       E                     dE             d eps       ncg     rms          rms(c)
DAV:   1    -0.116028800333E+04    0.34414E-03   -0.44361E-01 12624   0.757E-01    0.158E-01
RMM:   2    -0.116028913918E+04   -0.11358E-02   -0.10703E-02 12647   0.128E-01    0.111E-01
RMM:   3    -0.116028930789E+04   -0.16871E-03   -0.51216E-04  9641   0.426E-02    0.105E-01
RMM:   4    -0.116028947717E+04   -0.16928E-03   -0.96373E-05  7298   0.139E-02    0.114E-01
RMM:   5    -0.116028929891E+04    0.17826E-03   -0.53894E-05  7004   0.119E-02    0.904E-02
RMM:   6    -0.116028922278E+04    0.76126E-04   -0.80881E-05  7076   0.968E-03    0.824E-02
RMM:   7    -0.116028917977E+04    0.43009E-04   -0.75867E-05  7246   0.952E-03    0.674E-02
RMM:   8    -0.116028920527E+04   -0.25494E-04   -0.15795E-05  6593   0.635E-03
  16 F= -.11602892E+04 E0= -.11602812E+04  d E =-.839692E-03  mag=     8.9969
       N       E                     dE             d eps       ncg     rms          rms(c)
DAV:   1    -0.116028912888E+04    0.50899E-04   -0.61068E-02 12496   0.288E-01    0.112E-01
RMM:   2    -0.116028968958E+04   -0.56070E-03   -0.16309E-03 12162   0.538E-02    0.117E-01
RMM:   3    -0.116029011097E+04   -0.42139E-03   -0.10731E-04  7184   0.214E-02    0.124E-01
RMM:   4    -0.116028930480E+04    0.80616E-03   -0.13233E-04  7723   0.181E-02    0.839E-02
RMM:   5    -0.116028913243E+04    0.17238E-03   -0.13533E-04  7077   0.130E-02    0.108E-01
RMM:   6    -0.116028913408E+04   -0.16499E-05   -0.16607E-05  5785   0.661E-03    0.975E-02
RMM:   7    -0.116028912652E+04    0.75551E-05   -0.13935E-05  5489   0.498E-03    0.124E-01
RMM:   8    -0.116028904709E+04    0.79434E-04   -0.36173E-05  6488   0.842E-03
  17 F= -.11602890E+04 E0= -.11602808E+04  d E =0.158182E-03  mag=     8.9971
