       N       E                     dE             d eps       ncg     rms          rms(c)
DAV:   1    -0.116295889910E+04   -0.11630E+04   -0.65919E-06  8128   0.675E-03    0.793E-03
RMM:   2    -0.116295891044E+04   -0.11346E-04   -0.14204E-05  4695   0.448E-03    0.106E-02
RMM:   3    -0.116295891188E+04   -0.14327E-05   -0.28283E-06  2715   0.220E-03    0.100E-02
RMM:   4    -0.116295890512E+04    0.67618E-05   -0.11005E-06  2794   0.221E-03    0.947E-03
RMM:   5    -0.116295889944E+04    0.56706E-05   -0.13042E-06  2544   0.225E-03    0.936E-03
RMM:   6    -0.116295886598E+04    0.33461E-04   -0.22630E-05  5101   0.614E-03    0.113E-02
RMM:   7    -0.116295886372E+04    0.22646E-05   -0.41318E-06  2638   0.224E-03    0.104E-02
RMM:   8    -0.116295884738E+04    0.16336E-04   -0.78271E-06  3574   0.365E-03
   1 F= -.11629588E+04 E0= -.11629560E+04  d E =-.116296E+04  mag=     4.0582
       N       E                     dE             d eps       ncg     rms          rms(c)
DAV:   1    -0.116291936417E+04    0.39500E-01   -0.83711E+00 12576   0.274E+00    0.187E+00
RMM:   2    -0.116297370688E+04   -0.54343E-01   -0.21212E-01 12348   0.566E-01    0.111E+00
RMM:   3    -0.116298141943E+04   -0.77126E-02   -0.12883E-02 12273   0.192E-01    0.473E-01
RMM:   4    -0.116298167916E+04   -0.25973E-03   -0.38201E-03 12710   0.757E-02    0.268E-01
RMM:   5    -0.116298205681E+04   -0.37765E-03   -0.12146E-03 10998   0.389E-02    0.120E-01
RMM:   6    -0.116298230102E+04   -0.24421E-03   -0.24249E-04  8364   0.207E-02    0.680E-02
RMM:   7    -0.116298259128E+04   -0.29026E-03   -0.16715E-04  7662   0.146E-02    0.669E-02
RMM:   8    -0.116298285619E+04   -0.26491E-03   -0.14149E-04  7429   0.126E-02    0.562E-02
RMM:   9    -0.116298333443E+04   -0.47824E-03   -0.30789E-04  7727   0.188E-02    0.533E-02
RMM:  10    -0.116298368242E+04   -0.34799E-03   -0.25585E-04  7507   0.150E-02    0.490E-02
RMM:  11    -0.116298451336E+04   -0.83094E-03   -0.11582E-03  8750   0.362E-02    0.433E-02
RMM:  12    -0.116298569640E+04   -0.11830E-02   -0.47591E-03 10269   0.757E-02    0.412E-02
RMM:  13    -0.116298612014E+04   -0.42374E-03   -0.84097E-04  8717   0.256E-02    0.358E-02
RMM:  14    -0.116298625223E+04   -0.13209E-03   -0.12541E-04  7245   0.128E-02    0.354E-02
RMM:  15    -0.116298627111E+04   -0.18876E-04   -0.33052E-05  6554   0.744E-03
   2 F= -.11629863E+04 E0= -.11629834E+04  d E =-.274237E-01  mag=     4.0579
       N       E                     dE             d eps       ncg     rms          rms(c)
DAV:   1    -0.116298319038E+04    0.30619E-02   -0.16838E+00 12592   0.130E+00    0.825E-01
RMM:   2    -0.116299272757E+04   -0.95372E-02   -0.41247E-02 12335   0.255E-01    0.501E-01
RMM:   3    -0.116299404441E+04   -0.13168E-02   -0.28006E-03 12310   0.917E-02    0.231E-01
RMM:   4    -0.116299405708E+04   -0.12671E-04   -0.13796E-03 11597   0.403E-02    0.113E-01
RMM:   5    -0.116299418489E+04   -0.12781E-03   -0.33887E-04  9133   0.246E-02    0.532E-02
RMM:   6    -0.116299427675E+04   -0.91857E-04   -0.86690E-05  7381   0.119E-02    0.453E-02
RMM:   7    -0.116299438436E+04   -0.10761E-03   -0.61754E-05  7163   0.887E-03    0.413E-02
RMM:   8    -0.116299457461E+04   -0.19026E-03   -0.99258E-05  7109   0.109E-02    0.374E-02
RMM:   9    -0.116299473191E+04   -0.15730E-03   -0.95525E-05  6888   0.869E-03    0.356E-02
RMM:  10    -0.116299495240E+04   -0.22049E-03   -0.14849E-04  7081   0.116E-02    0.350E-02
RMM:  11    -0.116299550193E+04   -0.54952E-03   -0.11039E-03  8684   0.341E-02    0.312E-02
RMM:  12    -0.116299606095E+04   -0.55902E-03   -0.19821E-03  9301   0.456E-02    0.290E-02
RMM:  13    -0.116299640831E+04   -0.34736E-03   -0.99418E-04  8431   0.283E-02    0.268E-02
RMM:  14    -0.116299661148E+04   -0.20317E-03   -0.44959E-04  7629   0.190E-02    0.258E-02
RMM:  15    -0.116299670163E+04   -0.90152E-04   -0.14533E-04  6808   0.103E-02
   3 F= -.11629967E+04 E0= -.11629937E+04  d E =-.104305E-01  mag=     4.0605
       N       E                     dE             d eps       ncg     rms          rms(c)
DAV:   1    -0.116298570129E+04    0.10910E-01   -0.28908E+00 12648   0.170E+00    0.100E+00
RMM:   2    -0.116300202922E+04   -0.16328E-01   -0.66097E-02 12469   0.320E-01    0.561E-01
RMM:   3    -0.116300441559E+04   -0.23864E-02   -0.42381E-03 12514   0.114E-01    0.233E-01
RMM:   4    -0.116300452701E+04   -0.11142E-03   -0.12339E-03 11450   0.421E-02    0.126E-01
RMM:   5    -0.116300467285E+04   -0.14584E-03   -0.34263E-04  8933   0.231E-02    0.636E-02
RMM:   6    -0.116300477644E+04   -0.10359E-03   -0.98195E-05  7333   0.138E-02    0.410E-02
RMM:   7    -0.116300488963E+04   -0.11319E-03   -0.77239E-05  7152   0.106E-02    0.400E-02
RMM:   8    -0.116300499524E+04   -0.10561E-03   -0.61036E-05  7017   0.878E-03    0.356E-02
RMM:   9    -0.116300518694E+04   -0.19170E-03   -0.12712E-04  7143   0.117E-02    0.341E-02
RMM:  10    -0.116300532450E+04   -0.13756E-03   -0.10412E-04  6856   0.898E-03    0.328E-02
RMM:  11    -0.116300562206E+04   -0.29755E-03   -0.35432E-04  7610   0.192E-02    0.299E-02
RMM:  12    -0.116300620738E+04   -0.58532E-03   -0.24299E-03  9682   0.519E-02    0.286E-02
RMM:  13    -0.116300649704E+04   -0.28966E-03   -0.78209E-04  8213   0.246E-02    0.263E-02
RMM:  14    -0.116300658911E+04   -0.92070E-04   -0.15441E-04  6994   0.117E-02
   4 F= -.11630066E+04 E0= -.11630036E+04  d E =-.988748E-02  mag=     4.0587
       N       E                     dE             d eps       ncg     rms          rms(c)
DAV:   1    -0.116300532076E+04    0.11763E-02   -0.10632E+00 12744   0.110E+00    0.470E-01
RMM:   2    -0.116300961843E+04   -0.42977E-02   -0.25014E-02 12656   0.198E-01    0.262E-01
RMM:   3    -0.116301010246E+04   -0.48403E-03   -0.14888E-03 12165   0.679E-02    0.126E-01
RMM:   4    -0.116301013883E+04   -0.36371E-04   -0.40988E-04  9137   0.250E-02    0.617E-02
RMM:   5    -0.116301023128E+04   -0.92448E-04   -0.15382E-04  7501   0.169E-02    0.353E-02
RMM:   6    -0.116301027731E+04   -0.46035E-04   -0.49595E-05  7062   0.977E-03    0.302E-02
RMM:   7    -0.116301034456E+04   -0.67244E-04   -0.43515E-05  6940   0.808E-03    0.290E-02
RMM:   8    -0.116301045598E+04   -0.11142E-03   -0.76836E-05  6923   0.942E-03    0.268E-02
RMM:   9    -0.116301055024E+04   -0.94263E-04   -0.73404E-05  6650   0.745E-03
   5 F= -.11630106E+04 E0= -.11630075E+04  d E =-.396113E-02  mag=     4.0601
       N       E                     dE             d eps       ncg     rms          rms(c)
DAV:   1    -0.116300992726E+04    0.52872E-03   -0.10564E+00 12728   0.113E+00    0.357E-01
RMM:   2    -0.116301315065E+04   -0.32234E-02   -0.25607E-02 12739   0.201E-01    0.223E-01
RMM:   3    -0.116301337022E+04   -0.21957E-03   -0.14607E-03 12182   0.674E-02    0.126E-01
RMM:   4    -0.116301340175E+04   -0.31530E-04   -0.40207E-04  9013   0.249E-02    0.648E-02
RMM:   5    -0.116301350149E+04   -0.99741E-04   -0.17043E-04  7548   0.176E-02    0.351E-02
RMM:   6    -0.116301354715E+04   -0.45668E-04   -0.52544E-05  7058   0.102E-02    0.307E-02
RMM:   7    -0.116301361700E+04   -0.69848E-04   -0.47021E-05  6950   0.855E-03    0.295E-02
RMM:   8    -0.116301375206E+04   -0.13506E-03   -0.10556E-04  7005   0.111E-02    0.267E-02
RMM:   9    -0.116301386013E+04   -0.10807E-03   -0.99407E-05  6791   0.868E-03    0.262E-02
RMM:  10    -0.116301393858E+04   -0.78454E-04   -0.61165E-05  6427   0.680E-03
   6 F= -.11630139E+04 E0= -.11630109E+04  d E =-.338834E-02  mag=     4.0602
       N       E                     dE             d eps       ncg     rms          rms(c)
DAV:   1    -0.116301334063E+04    0.51950E-03   -0.11075E+00 12720   0.117E+00    0.320E-01
RMM:   2    -0.116301641347E+04   -0.30728E-02   -0.26549E-02 12827   0.203E-01    0.191E-01
RMM:   3    -0.116301656833E+04   -0.15486E-03   -0.14054E-03 12085   0.667E-02    0.113E-01
RMM:   4    -0.116301657842E+04   -0.10092E-04   -0.35263E-04  8716   0.240E-02    0.564E-02
RMM:   5    -0.116301666122E+04   -0.82794E-04   -0.15082E-04  7385   0.161E-02    0.305E-02
RMM:   6    -0.116301670165E+04   -0.40429E-04   -0.47624E-05  7038   0.101E-02    0.274E-02
RMM:   7    -0.116301676602E+04   -0.64375E-04   -0.47623E-05  6944   0.852E-03    0.264E-02
RMM:   8    -0.116301687095E+04   -0.10493E-03   -0.83561E-05  6946   0.990E-03    0.243E-02
RMM:   9    -0.116301695610E+04   -0.85149E-04   -0.77037E-05  6674   0.772E-03
   7 F= -.11630170E+04 E0= -.11630139E+04  d E =-.301752E-02  mag=     4.0604
       N       E                     dE             d eps       ncg     rms          rms(c)
DAV:   1    -0.116301699282E+04   -0.12187E-03   -0.47982E-01 12856   0.774E-01    0.195E-01
RMM:   2    -0.116301827614E+04   -0.12833E-02   -0.11442E-02 12804   0.133E-01    0.118E-01
RMM:   3    -0.116301833860E+04   -0.62461E-04   -0.58090E-04  9647   0.446E-02    0.722E-02
RMM:   4    -0.116301837252E+04   -0.33914E-04   -0.15721E-04  7365   0.165E-02    0.408E-02
RMM:   5    -0.116301844370E+04   -0.71188E-04   -0.90060E-05  7119   0.118E-02    0.255E-02
RMM:   6    -0.116301847881E+04   -0.35106E-04   -0.33257E-05  6876   0.758E-03    0.243E-02
RMM:   7    -0.116301852444E+04   -0.45625E-04   -0.29667E-05  6710   0.673E-03    0.233E-02
RMM:   8    -0.116301863306E+04   -0.10863E-03   -0.10060E-04  6889   0.107E-02    0.218E-02
RMM:   9    -0.116301874371E+04   -0.11065E-03   -0.14117E-04  6703   0.107E-02    0.205E-02
RMM:  10    -0.116301887918E+04   -0.13547E-03   -0.23174E-04  7066   0.138E-02    0.194E-02
RMM:  11    -0.116301917349E+04   -0.29431E-03   -0.19725E-03  9500   0.451E-02    0.194E-02
RMM:  12    -0.116301929724E+04   -0.12375E-03   -0.33604E-04  7524   0.157E-02    0.164E-02
RMM:  13    -0.116301934303E+04   -0.45787E-04   -0.78516E-05  6459   0.918E-03
   8 F= -.11630193E+04 E0= -.11630163E+04  d E =-.238693E-02  mag=     4.0608
       N       E                     dE             d eps       ncg     rms          rms(c)
DAV:   1    -0.116301939737E+04   -0.10013E-03   -0.37734E-01 12576   0.686E-01    0.170E-01
RMM:   2    -0.116302038918E+04   -0.99181E-03   -0.89186E-03 12852   0.117E-01    0.990E-02
RMM:   3    -0.116302042673E+04   -0.37551E-04   -0.43000E-04  8864   0.385E-02    0.593E-02
RMM:   4    -0.116302043158E+04   -0.48523E-05   -0.10405E-04  7185   0.140E-02    0.317E-02
RMM:   5    -0.116302045830E+04   -0.26721E-04   -0.54196E-05  7005   0.971E-03    0.179E-02
RMM:   6    -0.116302047173E+04   -0.13427E-04   -0.19145E-05  6765   0.634E-03    0.161E-02
RMM:   7    -0.116302048716E+04   -0.15428E-04   -0.13791E-05  6289   0.498E-03    0.154E-02
RMM:   8    -0.116302051991E+04   -0.32747E-04   -0.27202E-05  6190   0.597E-03
   9 F= -.11630205E+04 E0= -.11630175E+04  d E =-.117688E-02  mag=     4.0609
       N       E                     dE             d eps       ncg     rms          rms(c)
DAV:   1    -0.116302083374E+04   -0.34658E-03   -0.14261E-01 12752   0.428E-01    0.916E-02
RMM:   2    -0.116302118885E+04   -0.35511E-03   -0.34373E-03 12665   0.725E-02    0.556E-02
RMM:   3    -0.116302119763E+04   -0.87787E-05   -0.14224E-04  7372   0.239E-02    0.361E-02
RMM:   4    -0.116302121071E+04   -0.13077E-04   -0.52984E-05  6953   0.932E-03    0.222E-02
RMM:   5    -0.116302123263E+04   -0.21922E-04   -0.26295E-05  6707   0.631E-03    0.157E-02
RMM:   6    -0.116302124446E+04   -0.11831E-04   -0.11344E-05  6073   0.442E-03    0.146E-02
RMM:   7    -0.116302125824E+04   -0.13784E-04   -0.88486E-06  5295   0.398E-03    0.143E-02
RMM:   8    -0.116302127993E+04   -0.21688E-04   -0.14041E-05  5449   0.419E-03
  10 F= -.11630213E+04 E0= -.11630182E+04  d E =-.760025E-03  mag=     4.0610
       N       E                     dE             d eps       ncg     rms          rms(c)
DAV:   1    -0.116302149392E+04   -0.23568E-03   -0.28142E-01 12512   0.601E-01    0.118E-01
RMM:   2    -0.116302215484E+04   -0.66091E-03   -0.67288E-03 12775   0.102E-01    0.709E-02
RMM:   3    -0.116302216121E+04   -0.63761E-05   -0.30172E-04  8302   0.336E-02    0.459E-02
RMM:   4    -0.116302216512E+04   -0.39078E-05   -0.82165E-05  7071   0.123E-02    0.260E-02
RMM:   5    -0.116302218556E+04   -0.20436E-04   -0.38265E-05  6916   0.836E-03    0.150E-02
RMM:   6    -0.116302219648E+04   -0.10928E-04   -0.15258E-05  6637   0.558E-03    0.140E-02
RMM:   7    -0.116302220961E+04   -0.13123E-04   -0.11262E-05  5995   0.465E-03    0.135E-02
RMM:   8    -0.116302223204E+04   -0.22437E-04   -0.17397E-05  5733   0.488E-03
  11 F= -.11630222E+04 E0= -.11630192E+04  d E =-.952111E-03  mag=     4.0614
       N       E                     dE             d eps       ncg     rms          rms(c)
DAV:   1    -0.116302223006E+04   -0.20451E-04   -0.38663E-01 12544   0.705E-01    0.136E-01
RMM:   2    -0.116302311430E+04   -0.88424E-03   -0.91442E-03 12684   0.118E-01    0.802E-02
RMM:   3    -0.116302311923E+04   -0.49270E-05   -0.43011E-04  8989   0.398E-02    0.520E-02
RMM:   4    -0.116302311743E+04    0.17935E-05   -0.10686E-04  7147   0.138E-02    0.286E-02
RMM:   5    -0.116302313670E+04   -0.19264E-04   -0.45526E-05  6970   0.928E-03    0.154E-02
RMM:   6    -0.116302314741E+04   -0.10708E-04   -0.18488E-05  6749   0.625E-03    0.139E-02
RMM:   7    -0.116302315980E+04   -0.12390E-04   -0.13096E-05  6258   0.497E-03    0.130E-02
RMM:   8    -0.116302318264E+04   -0.22843E-04   -0.19673E-05  6038   0.544E-03
  12 F= -.11630232E+04 E0= -.11630201E+04  d E =-.950596E-03  mag=     4.0617
