       N       E                     dE             d eps       ncg     rms          rms(c)
DAV:   1    -0.116280988387E+04   -0.11628E+04   -0.80377E-05 10392   0.382E-02    0.488E-02
RMM:   2    -0.116280990796E+04   -0.24094E-04   -0.89622E-05  6747   0.141E-02    0.628E-02
RMM:   3    -0.116280992179E+04   -0.13830E-04   -0.19682E-05  5267   0.534E-03    0.193E-02
RMM:   4    -0.116280994416E+04   -0.22368E-04   -0.12084E-05  3885   0.411E-03    0.201E-02
RMM:   5    -0.116280993587E+04    0.82936E-05   -0.35202E-06  3285   0.311E-03    0.207E-02
RMM:   6    -0.116280993950E+04   -0.36315E-05   -0.20721E-06  2576   0.230E-03    0.202E-02
RMM:   7    -0.116280995363E+04   -0.14134E-04   -0.42273E-06  3978   0.293E-03    0.199E-02
RMM:   8    -0.116281000632E+04   -0.52692E-04   -0.25061E-05  5311   0.632E-03
   1 F= -.11628100E+04 E0= -.11628100E+04  d E =-.116281E+04  mag=     5.9999
       N       E                     dE             d eps       ncg     rms          rms(c)
DAV:   1    -0.116280761094E+04    0.23427E-02   -0.91169E-01 12528   0.976E-01    0.577E-01
RMM:   2    -0.116281228057E+04   -0.46696E-02   -0.23761E-02 12353   0.196E-01    0.348E-01
RMM:   3    -0.116281282927E+04   -0.54870E-03   -0.13997E-03 11810   0.658E-02    0.159E-01
RMM:   4    -0.116281280164E+04    0.27624E-04   -0.66932E-04 10615   0.314E-02    0.872E-02
RMM:   5    -0.116281293507E+04   -0.13343E-03   -0.24626E-04  8385   0.206E-02    0.542E-02
RMM:   6    -0.116281303457E+04   -0.99504E-04   -0.84687E-05  7327   0.107E-02    0.479E-02
RMM:   7    -0.116281316432E+04   -0.12974E-03   -0.70071E-05  7224   0.966E-03    0.431E-02
RMM:   8    -0.116281335905E+04   -0.19473E-03   -0.11123E-04  7249   0.110E-02    0.406E-02
RMM:   9    -0.116281348973E+04   -0.13068E-03   -0.74933E-05  6709   0.732E-03    0.382E-02
RMM:  10    -0.116281363226E+04   -0.14253E-03   -0.64704E-05  6742   0.813E-03    0.411E-02
RMM:  11    -0.116281376133E+04   -0.12907E-03   -0.61636E-05  6299   0.714E-03    0.398E-02
RMM:  12    -0.116281370088E+04    0.60450E-04   -0.13796E-05  5825   0.673E-03
   2 F= -.11628137E+04 E0= -.11628137E+04  d E =-.369456E-02  mag=     5.9999
       N       E                     dE             d eps       ncg     rms          rms(c)
DAV:   1    -0.116281443580E+04   -0.67447E-03   -0.19067E-01 12552   0.458E-01    0.255E-01
RMM:   2    -0.116281532125E+04   -0.88545E-03   -0.54357E-03 12175   0.938E-02    0.157E-01
RMM:   3    -0.116281546241E+04   -0.14116E-03   -0.29708E-04  8881   0.323E-02    0.830E-02
RMM:   4    -0.116281559955E+04   -0.13714E-03   -0.26698E-04  8474   0.195E-02    0.510E-02
RMM:   5    -0.116281575169E+04   -0.15214E-03   -0.14653E-04  7408   0.134E-02    0.483E-02
RMM:   6    -0.116281582581E+04   -0.74120E-04   -0.51625E-05  6530   0.745E-03    0.430E-02
RMM:   7    -0.116281589541E+04   -0.69605E-04   -0.27510E-05  6135   0.618E-03    0.442E-02
RMM:   8    -0.116281593672E+04   -0.41311E-04   -0.14689E-05  5411   0.382E-03
   3 F= -.11628159E+04 E0= -.11628159E+04  d E =-.223584E-02  mag=     5.9999
       N       E                     dE             d eps       ncg     rms          rms(c)
DAV:   1    -0.116281511328E+04    0.78214E-03   -0.33734E-01 12488   0.567E-01    0.395E-01
RMM:   2    -0.116281762491E+04   -0.25116E-02   -0.70757E-03 12330   0.105E-01    0.205E-01
RMM:   3    -0.116281808933E+04   -0.46443E-03   -0.47722E-04  8992   0.392E-02    0.893E-02
RMM:   4    -0.116281833473E+04   -0.24540E-03   -0.18900E-04  7539   0.180E-02    0.641E-02
RMM:   5    -0.116281861079E+04   -0.27606E-03   -0.16335E-04  7417   0.135E-02    0.522E-02
RMM:   6    -0.116281883781E+04   -0.22702E-03   -0.15887E-04  7008   0.109E-02    0.523E-02
RMM:   7    -0.116281901671E+04   -0.17890E-03   -0.88744E-05  6578   0.839E-03    0.505E-02
RMM:   8    -0.116281922171E+04   -0.20500E-03   -0.90218E-05  6664   0.876E-03    0.516E-02
RMM:   9    -0.116281926582E+04   -0.44107E-04   -0.21231E-05  5522   0.514E-03
   4 F= -.11628193E+04 E0= -.11628192E+04  d E =-.332909E-02  mag=     5.9999
       N       E                     dE             d eps       ncg     rms          rms(c)
DAV:   1    -0.116281961445E+04   -0.39274E-03   -0.10056E-01 12288   0.308E-01    0.223E-01
RMM:   2    -0.116282052866E+04   -0.91421E-03   -0.21903E-03 12164   0.587E-02    0.123E-01
RMM:   3    -0.116282077490E+04   -0.24624E-03   -0.16171E-04  7491   0.237E-02    0.718E-02
RMM:   4    -0.116282102247E+04   -0.24758E-03   -0.13552E-04  7171   0.126E-02    0.601E-02
RMM:   5    -0.116282139803E+04   -0.37555E-03   -0.19844E-04  7208   0.139E-02    0.564E-02
RMM:   6    -0.116282171444E+04   -0.31642E-03   -0.18121E-04  6931   0.124E-02    0.556E-02
RMM:   7    -0.116282197190E+04   -0.25746E-03   -0.13344E-04  6755   0.102E-02    0.554E-02
RMM:   8    -0.116282243026E+04   -0.45836E-03   -0.29731E-04  7534   0.174E-02    0.555E-02
RMM:   9    -0.116282323363E+04   -0.80337E-03   -0.95265E-04  8921   0.324E-02    0.530E-02
RMM:  10    -0.116282474475E+04   -0.15111E-02   -0.37765E-03 10364   0.693E-02    0.501E-02
RMM:  11    -0.116282617507E+04   -0.14303E-02   -0.41890E-03 10492   0.702E-02    0.477E-02
RMM:  12    -0.116282729477E+04   -0.11197E-02   -0.31255E-03 10256   0.560E-02    0.480E-02
RMM:  13    -0.116282715458E+04    0.14019E-03   -0.37917E-04  8212   0.181E-02    0.614E-02
RMM:  14    -0.116282858218E+04   -0.14276E-02   -0.53238E-03 10645   0.855E-02    0.702E-02
RMM:  15    -0.116282793967E+04    0.64251E-03   -0.12551E-03  9546   0.481E-02    0.585E-02
RMM:  16    -0.116282985610E+04   -0.19164E-02   -0.58328E-03 10621   0.924E-02    0.610E-02
RMM:  17    -0.116283112613E+04   -0.12700E-02   -0.36762E-03 10384   0.629E-02    0.481E-02
RMM:  18    -0.116283132924E+04   -0.20311E-03   -0.61969E-04  8660   0.203E-02    0.563E-02
RMM:  19    -0.116282973890E+04    0.15903E-02   -0.26344E-03 10044   0.643E-02    0.779E-02
RMM:  20    -0.116282601845E+04    0.37205E-02   -0.13956E-02 11035   0.136E-01    0.108E-01
RMM:  21    -0.116282425092E+04    0.17675E-02   -0.88930E-03 10935   0.975E-02    0.118E-01
RMM:  22    -0.116282510076E+04   -0.84983E-03   -0.75380E-04  8738   0.268E-02    0.974E-02
RMM:  23    -0.116282594638E+04   -0.84563E-03   -0.69437E-04  8269   0.328E-02    0.876E-02
RMM:  24    -0.116282638018E+04   -0.43380E-03   -0.37626E-04  6855   0.213E-02    0.863E-02
RMM:  25    -0.116282700667E+04   -0.62649E-03   -0.68272E-04  8245   0.272E-02    0.834E-02
RMM:  26    -0.116282821375E+04   -0.12071E-02   -0.23614E-03  9639   0.512E-02    0.712E-02
RMM:  27    -0.116282938561E+04   -0.11719E-02   -0.33424E-03 10086   0.602E-02    0.673E-02
RMM:  28    -0.116282966953E+04   -0.28392E-03   -0.60119E-04  8507   0.208E-02    0.739E-02
RMM:  29    -0.116282965551E+04    0.14014E-04   -0.38589E-05  6484   0.930E-03
   5 F= -.11628297E+04 E0= -.11628296E+04  d E =-.103897E-01  mag=     5.9999
       N       E                     dE             d eps       ncg     rms          rms(c)
DAV:   1    -0.116282178593E+04    0.78836E-02   -0.40698E-01 12600   0.588E-01    0.460E-01
RMM:   2    -0.116282497462E+04   -0.31887E-02   -0.87591E-03 12147   0.114E-01    0.247E-01
RMM:   3    -0.116282551576E+04   -0.54114E-03   -0.53102E-04  9392   0.403E-02    0.102E-01
RMM:   4    -0.116282565364E+04   -0.13787E-03   -0.21272E-04  7723   0.180E-02    0.508E-02
RMM:   5    -0.116282578580E+04   -0.13216E-03   -0.12346E-04  7244   0.116E-02    0.341E-02
RMM:   6    -0.116282583973E+04   -0.53933E-04   -0.33440E-05  6542   0.701E-03    0.325E-02
RMM:   7    -0.116282589812E+04   -0.58387E-04   -0.23744E-05  5824   0.529E-03    0.313E-02
RMM:   8    -0.116282604049E+04   -0.14238E-03   -0.71129E-05  6465   0.885E-03    0.323E-02
RMM:   9    -0.116282607838E+04   -0.37889E-04   -0.23232E-05  5018   0.423E-03
   6 F= -.11628261E+04 E0= -.11628261E+04  d E =0.357713E-02  mag=     6.0000
       N       E                     dE             d eps       ncg     rms          rms(c)
DAV:   1    -0.116281784671E+04    0.81938E-02   -0.38293E-01 12528   0.565E-01    0.453E-01
RMM:   2    -0.116282089220E+04   -0.30455E-02   -0.72712E-03 12209   0.104E-01    0.228E-01
RMM:   3    -0.116282140726E+04   -0.51506E-03   -0.46506E-04  8994   0.383E-02    0.832E-02
RMM:   4    -0.116282147012E+04   -0.62865E-04   -0.12543E-04  7421   0.145E-02    0.426E-02
RMM:   5    -0.116282153654E+04   -0.66412E-04   -0.84399E-05  7113   0.968E-03    0.251E-02
RMM:   6    -0.116282156299E+04   -0.26450E-04   -0.20222E-05  6459   0.606E-03    0.206E-02
RMM:   7    -0.116282160679E+04   -0.43801E-04   -0.23478E-05  5935   0.559E-03    0.216E-02
RMM:   8    -0.116282165612E+04   -0.49338E-04   -0.26890E-05  5687   0.501E-03
   7 F= -.11628217E+04 E0= -.11628216E+04  d E =0.442226E-02  mag=     6.0000
       N       E                     dE             d eps       ncg     rms          rms(c)
DAV:   1    -0.116281998093E+04    0.16259E-02   -0.10882E+00 12616   0.965E-01    0.754E-01
RMM:   2    -0.116282844169E+04   -0.84608E-02   -0.20802E-02 12314   0.178E-01    0.387E-01
RMM:   3    -0.116282986995E+04   -0.14283E-02   -0.14358E-03 11320   0.647E-02    0.138E-01
RMM:   4    -0.116283004860E+04   -0.17865E-03   -0.37802E-04  8494   0.251E-02    0.803E-02
RMM:   5    -0.116283019160E+04   -0.14300E-03   -0.14140E-04  7298   0.154E-02    0.515E-02
RMM:   6    -0.116283029785E+04   -0.10625E-03   -0.99097E-05  7006   0.101E-02    0.385E-02
RMM:   7    -0.116283039013E+04   -0.92282E-04   -0.49596E-05  6670   0.700E-03    0.352E-02
RMM:   8    -0.116283055700E+04   -0.16687E-03   -0.90793E-05  6635   0.101E-02    0.381E-02
RMM:   9    -0.116283070023E+04   -0.14323E-03   -0.90399E-05  6205   0.802E-03    0.351E-02
RMM:  10    -0.116283092846E+04   -0.22822E-03   -0.16448E-04  6710   0.123E-02    0.362E-02
RMM:  11    -0.116283155560E+04   -0.62715E-03   -0.13870E-03  9208   0.392E-02    0.336E-02
RMM:  12    -0.116283236067E+04   -0.80507E-03   -0.35521E-03 10208   0.641E-02    0.325E-02
RMM:  13    -0.116283270656E+04   -0.34589E-03   -0.89049E-04  8889   0.262E-02    0.312E-02
RMM:  14    -0.116283303486E+04   -0.32829E-03   -0.72340E-04  8553   0.256E-02    0.323E-02
RMM:  15    -0.116283265762E+04    0.37724E-03   -0.34611E-04  7888   0.271E-02    0.387E-02
RMM:  16    -0.116283262966E+04    0.27964E-04   -0.56403E-05  5818   0.764E-03
   8 F= -.11628326E+04 E0= -.11628326E+04  d E =-.109735E-01  mag=     6.0000
       N       E                     dE             d eps       ncg     rms          rms(c)
DAV:   1    -0.116283443474E+04   -0.17771E-02   -0.26354E-01 12568   0.485E-01    0.362E-01
RMM:   2    -0.116283651282E+04   -0.20781E-02   -0.54023E-03 12270   0.907E-02    0.187E-01
RMM:   3    -0.116283688943E+04   -0.37661E-03   -0.32749E-04  8328   0.332E-02    0.751E-02
RMM:   4    -0.116283705351E+04   -0.16408E-03   -0.15001E-04  7275   0.158E-02    0.494E-02
RMM:   5    -0.116283718095E+04   -0.12745E-03   -0.93927E-05  6916   0.928E-03    0.389E-02
RMM:   6    -0.116283728214E+04   -0.10118E-03   -0.49756E-05  6366   0.758E-03    0.354E-02
RMM:   7    -0.116283737159E+04   -0.89456E-04   -0.39423E-05  5719   0.575E-03    0.333E-02
RMM:   8    -0.116283755392E+04   -0.18233E-03   -0.10020E-04  6441   0.104E-02    0.353E-02
RMM:   9    -0.116283777649E+04   -0.22257E-03   -0.18407E-04  6713   0.123E-02    0.332E-02
RMM:  10    -0.116283832805E+04   -0.55156E-03   -0.11185E-03  8815   0.341E-02    0.302E-02
RMM:  11    -0.116283919767E+04   -0.86963E-03   -0.55641E-03 10470   0.797E-02    0.325E-02
RMM:  12    -0.116283959242E+04   -0.39475E-03   -0.10120E-03  8959   0.270E-02    0.283E-02
RMM:  13    -0.116283964949E+04   -0.57067E-04   -0.94012E-05  7124   0.112E-02
   9 F= -.11628396E+04 E0= -.11628396E+04  d E =-.701984E-02  mag=     6.0000
       N       E                     dE             d eps       ncg     rms          rms(c)
DAV:   1    -0.116283907826E+04    0.51416E-03   -0.41269E-02 12776   0.203E-01    0.121E-01
RMM:   2    -0.116283937506E+04   -0.29680E-03   -0.99289E-04 11152   0.378E-02    0.662E-02
RMM:   3    -0.116283943908E+04   -0.64020E-04   -0.59610E-05  6917   0.144E-02    0.347E-02
RMM:   4    -0.116283952098E+04   -0.81897E-04   -0.56932E-05  6742   0.866E-03    0.262E-02
RMM:   5    -0.116283959701E+04   -0.76026E-04   -0.50280E-05  5978   0.602E-03    0.242E-02
RMM:   6    -0.116283963976E+04   -0.42749E-04   -0.22258E-05  4721   0.395E-03    0.232E-02
RMM:   7    -0.116283974432E+04   -0.10456E-03   -0.64713E-05  6002   0.862E-03    0.246E-02
RMM:   8    -0.116283987157E+04   -0.12726E-03   -0.11795E-04  6373   0.993E-03    0.244E-02
RMM:   9    -0.116284014697E+04   -0.27540E-03   -0.57458E-04  8045   0.232E-02    0.234E-02
RMM:  10    -0.116284040236E+04   -0.25539E-03   -0.71655E-04  8071   0.248E-02    0.206E-02
RMM:  11    -0.116284078749E+04   -0.38513E-03   -0.34619E-03  9816   0.602E-02    0.224E-02
RMM:  12    -0.116284100199E+04   -0.21450E-03   -0.54597E-04  8295   0.193E-02    0.177E-02
RMM:  13    -0.116284099829E+04    0.37031E-05   -0.35387E-05  6672   0.949E-03
  10 F= -.11628410E+04 E0= -.11628410E+04  d E =-.134880E-02  mag=     6.0000
       N       E                     dE             d eps       ncg     rms          rms(c)
DAV:   1    -0.116278088983E+04    0.60112E-01   -0.92836E+00 12448   0.289E+00    0.208E+00
RMM:   2    -0.116284654984E+04   -0.65660E-01   -0.18805E-01 12540   0.543E-01    0.115E+00
RMM:   3    -0.116285685565E+04   -0.10306E-01   -0.12058E-02 12611   0.186E-01    0.390E-01
RMM:   4    -0.116285698613E+04   -0.13048E-03   -0.29513E-03 13204   0.641E-02    0.207E-01
RMM:   5    -0.116285710859E+04   -0.12246E-03   -0.98467E-04 10823   0.315E-02    0.127E-01
RMM:   6    -0.116285719843E+04   -0.89842E-04   -0.17501E-04  7679   0.177E-02    0.357E-02
RMM:   7    -0.116285724120E+04   -0.42773E-04   -0.67038E-05  7239   0.105E-02    0.295E-02
RMM:   8    -0.116285730024E+04   -0.59036E-04   -0.56980E-05  7141   0.966E-03
  11 F= -.11628573E+04 E0= -.11628573E+04  d E =-.163019E-01  mag=     5.9999
       N       E                     dE             d eps       ncg     rms          rms(c)
DAV:   1    -0.116276390998E+04    0.93331E-01   -0.77323E+00 12688   0.258E+00    0.198E+00
RMM:   2    -0.116282263649E+04   -0.58727E-01   -0.15470E-01 12328   0.483E-01    0.104E+00
RMM:   3    -0.116283219981E+04   -0.95633E-02   -0.10229E-02 12232   0.177E-01    0.385E-01
RMM:   4    -0.116283241288E+04   -0.21307E-03   -0.21309E-03 12577   0.526E-02    0.188E-01
RMM:   5    -0.116283254917E+04   -0.13629E-03   -0.73044E-04 10403   0.300E-02    0.515E-02
RMM:   6    -0.116283257410E+04   -0.24924E-04   -0.74749E-05  7399   0.161E-02    0.350E-02
RMM:   7    -0.116283259780E+04   -0.23704E-04   -0.45834E-05  7192   0.777E-03    0.264E-02
RMM:   8    -0.116283262153E+04   -0.23731E-04   -0.25376E-05  7068   0.769E-03
  12 F= -.11628326E+04 E0= -.11628326E+04  d E =0.246787E-01  mag=     6.0000
       N       E                     dE             d eps       ncg     rms          rms(c)
DAV:   1    -0.116281935958E+04    0.13238E-01   -0.51260E-01 12664   0.672E-01    0.497E-01
RMM:   2    -0.116282313472E+04   -0.37751E-02   -0.10265E-02 12278   0.123E-01    0.255E-01
RMM:   3    -0.116282376923E+04   -0.63451E-03   -0.67120E-04  9892   0.461E-02    0.990E-02
RMM:   4    -0.116282385342E+04   -0.84197E-04   -0.16869E-04  7532   0.165E-02    0.543E-02
RMM:   5    -0.116282393471E+04   -0.81281E-04   -0.86235E-05  7183   0.110E-02    0.277E-02
RMM:   6    -0.116282397831E+04   -0.43606E-04   -0.32719E-05  6894   0.738E-03    0.256E-02
RMM:   7    -0.116282402706E+04   -0.48752E-04   -0.29439E-05  6515   0.621E-03    0.242E-02
RMM:   8    -0.116282415027E+04   -0.12320E-03   -0.11597E-04  7073   0.119E-02    0.217E-02
RMM:   9    -0.116282424184E+04   -0.91579E-04   -0.10564E-04  6426   0.937E-03
  13 F= -.11628242E+04 E0= -.11628242E+04  d E =0.837969E-02  mag=     6.0000
       N       E                     dE             d eps       ncg     rms          rms(c)
DAV:   1    -0.116259323456E+04    0.23092E+00   -0.33528E+01 12576   0.545E+00    0.404E+00
RMM:   2    -0.116282670145E+04   -0.23347E+00   -0.72810E-01 12549   0.108E+00    0.247E+00
RMM:   3    -0.116286530088E+04   -0.38599E-01   -0.45312E-02 12474   0.355E-01    0.823E-01
RMM:   4    -0.116286583402E+04   -0.53314E-03   -0.10149E-02 14426   0.128E-01    0.486E-01
RMM:   5    -0.116286664016E+04   -0.80613E-03   -0.40727E-03 13200   0.614E-02    0.267E-01
RMM:   6    -0.116286724208E+04   -0.60193E-03   -0.86980E-04 10594   0.353E-02    0.103E-01
RMM:   7    -0.116286755659E+04   -0.31450E-03   -0.27680E-04  8196   0.189E-02    0.821E-02
RMM:   8    -0.116286802986E+04   -0.47328E-03   -0.33872E-04  8151   0.196E-02    0.666E-02
RMM:   9    -0.116286856513E+04   -0.53527E-03   -0.39973E-04  8040   0.221E-02    0.645E-02
RMM:  10    -0.116286908418E+04   -0.51905E-03   -0.44321E-04  8062   0.208E-02    0.551E-02
RMM:  11    -0.116287036160E+04   -0.12774E-02   -0.28066E-03  9825   0.583E-02    0.453E-02
RMM:  12    -0.116287115762E+04   -0.79602E-03   -0.21703E-03  9411   0.466E-02    0.380E-02
RMM:  13    -0.116287153070E+04   -0.37308E-03   -0.82705E-04  8582   0.242E-02    0.354E-02
RMM:  14    -0.116287188239E+04   -0.35169E-03   -0.55652E-04  8194   0.222E-02    0.319E-02
RMM:  15    -0.116287229104E+04   -0.40865E-03   -0.82112E-04  8349   0.267E-02    0.297E-02
RMM:  16    -0.116287265048E+04   -0.35944E-03   -0.81732E-04  8214   0.247E-02    0.259E-02
RMM:  17    -0.116287306474E+04   -0.41426E-03   -0.13151E-03  8579   0.336E-02    0.234E-02
RMM:  18    -0.116287341229E+04   -0.34754E-03   -0.14591E-03  8590   0.335E-02    0.201E-02
RMM:  19    -0.116287368635E+04   -0.27407E-03   -0.16963E-03  8740   0.366E-02    0.178E-02
RMM:  20    -0.116287387708E+04   -0.19073E-03   -0.12718E-03  8503   0.290E-02    0.153E-02
RMM:  21    -0.116287395182E+04   -0.74744E-04   -0.22826E-04  7392   0.129E-02
  14 F= -.11628740E+04 E0= -.11628739E+04  d E =-.497100E-01  mag=     5.9999
       N       E                     dE             d eps       ncg     rms          rms(c)
DAV:   1    -0.116285038991E+04    0.23487E-01   -0.45119E+00 12632   0.211E+00    0.125E+00
RMM:   2    -0.116287591223E+04   -0.25522E-01   -0.99490E-02 12536   0.390E-01    0.681E-01
RMM:   3    -0.116287957424E+04   -0.36620E-02   -0.63426E-03 12717   0.138E-01    0.277E-01
RMM:   4    -0.116287969849E+04   -0.12425E-03   -0.16956E-03 12197   0.493E-02    0.138E-01
RMM:   5    -0.116287982887E+04   -0.13038E-03   -0.38129E-04  8782   0.240E-02    0.825E-02
RMM:   6    -0.116287992559E+04   -0.96726E-04   -0.11580E-04  7362   0.141E-02    0.388E-02
RMM:   7    -0.116288001834E+04   -0.92751E-04   -0.75475E-05  7179   0.111E-02    0.336E-02
RMM:   8    -0.116288019062E+04   -0.17228E-03   -0.15544E-04  7284   0.142E-02    0.282E-02
RMM:   9    -0.116288028178E+04   -0.91158E-04   -0.95666E-05  7055   0.865E-03
  15 F= -.11628803E+04 E0= -.11628802E+04  d E =-.632996E-02  mag=     5.9997
       N       E                     dE             d eps       ncg     rms          rms(c)
DAV:   1    -0.116288043020E+04   -0.23958E-03   -0.18120E-01 12928   0.457E-01    0.214E-01
RMM:   2    -0.116288121582E+04   -0.78562E-03   -0.47602E-03 12242   0.881E-02    0.136E-01
RMM:   3    -0.116288130596E+04   -0.90136E-04   -0.23976E-04  8234   0.308E-02    0.743E-02
RMM:   4    -0.116288135978E+04   -0.53818E-04   -0.14509E-04  7403   0.157E-02    0.372E-02
RMM:   5    -0.116288142624E+04   -0.66460E-04   -0.86635E-05  7053   0.907E-03    0.251E-02
RMM:   6    -0.116288145690E+04   -0.30658E-04   -0.25734E-05  6439   0.618E-03    0.234E-02
RMM:   7    -0.116288149647E+04   -0.39571E-04   -0.21262E-05  5797   0.499E-03    0.222E-02
RMM:   8    -0.116288156754E+04   -0.71070E-04   -0.41918E-05  6222   0.651E-03
  16 F= -.11628816E+04 E0= -.11628815E+04  d E =-.128576E-02  mag=     5.9998
       N       E                     dE             d eps       ncg     rms          rms(c)
DAV:   1    -0.116288154039E+04   -0.43921E-04   -0.24632E-01 12384   0.537E-01    0.218E-01
RMM:   2    -0.116288253452E+04   -0.99413E-03   -0.59302E-03 12383   0.971E-02    0.125E-01
RMM:   3    -0.116288264654E+04   -0.11202E-03   -0.33268E-04  8452   0.346E-02    0.633E-02
RMM:   4    -0.116288269499E+04   -0.48454E-04   -0.12765E-04  7252   0.141E-02    0.345E-02
RMM:   5    -0.116288275754E+04   -0.62549E-04   -0.68378E-05  7069   0.910E-03    0.239E-02
RMM:   6    -0.116288279318E+04   -0.35638E-04   -0.27183E-05  6684   0.636E-03    0.220E-02
RMM:   7    -0.116288284090E+04   -0.47714E-04   -0.28328E-05  6129   0.600E-03    0.210E-02
RMM:   8    -0.116288293403E+04   -0.93131E-04   -0.82381E-05  6613   0.908E-03
  17 F= -.11628829E+04 E0= -.11628829E+04  d E =-.136649E-02  mag=     5.9998
       N       E                     dE             d eps       ncg     rms          rms(c)
DAV:   1    -0.116288238414E+04    0.45676E-03   -0.38488E-01 12368   0.668E-01    0.271E-01
RMM:   2    -0.116288394616E+04   -0.15620E-02   -0.90161E-03 12567   0.118E-01    0.147E-01
RMM:   3    -0.116288410703E+04   -0.16088E-03   -0.48893E-04  9337   0.407E-02    0.714E-02
RMM:   4    -0.116288415096E+04   -0.43922E-04   -0.14410E-04  7303   0.156E-02    0.375E-02
RMM:   5    -0.116288421735E+04   -0.66399E-04   -0.86315E-05  7109   0.106E-02    0.240E-02
RMM:   6    -0.116288425215E+04   -0.34791E-04   -0.31404E-05  6845   0.713E-03    0.224E-02
RMM:   7    -0.116288429361E+04   -0.41462E-04   -0.26476E-05  6483   0.608E-03    0.212E-02
RMM:   8    -0.116288438670E+04   -0.93091E-04   -0.80582E-05  6704   0.938E-03
  18 F= -.11628844E+04 E0= -.11628843E+04  d E =-.145267E-02  mag=     5.9998
       N       E                     dE             d eps       ncg     rms          rms(c)
DAV:   1    -0.116288422371E+04    0.69902E-04   -0.28950E-01 12400   0.591E-01    0.203E-01
RMM:   2    -0.116288525292E+04   -0.10292E-02   -0.69429E-03 12543   0.104E-01    0.113E-01
RMM:   3    -0.116288534875E+04   -0.95835E-04   -0.36413E-04  8647   0.357E-02    0.600E-02
RMM:   4    -0.116288539273E+04   -0.43973E-04   -0.11680E-04  7203   0.137E-02    0.342E-02
RMM:   5    -0.116288545339E+04   -0.60662E-04   -0.64371E-05  7024   0.933E-03    0.240E-02
RMM:   6    -0.116288548722E+04   -0.33830E-04   -0.27571E-05  6720   0.647E-03    0.220E-02
RMM:   7    -0.116288552335E+04   -0.36133E-04   -0.21673E-05  6023   0.556E-03    0.209E-02
RMM:   8    -0.116288560554E+04   -0.82188E-04   -0.65367E-05  6483   0.848E-03
  19 F= -.11628856E+04 E0= -.11628856E+04  d E =-.121884E-02  mag=     5.9998
       N       E                     dE             d eps       ncg     rms          rms(c)
DAV:   1    -0.116288576558E+04   -0.24223E-03   -0.17842E-01 12432   0.472E-01    0.135E-01
RMM:   2    -0.116288632595E+04   -0.56037E-03   -0.43560E-03 12537   0.823E-02    0.784E-02
RMM:   3    -0.116288637033E+04   -0.44382E-04   -0.20874E-04  7704   0.283E-02    0.459E-02
RMM:   4    -0.116288640521E+04   -0.34875E-04   -0.77901E-05  7058   0.114E-02    0.276E-02
RMM:   5    -0.116288645438E+04   -0.49170E-04   -0.48169E-05  6883   0.756E-03    0.206E-02
RMM:   6    -0.116288648109E+04   -0.26714E-04   -0.19885E-05  6351   0.532E-03    0.197E-02
RMM:   7    -0.116288651020E+04   -0.29109E-04   -0.16053E-05  5451   0.482E-03    0.194E-02
RMM:   8    -0.116288656113E+04   -0.50930E-04   -0.32080E-05  5987   0.584E-03
  20 F= -.11628866E+04 E0= -.11628865E+04  d E =-.955590E-03  mag=     5.9997
       N       E                     dE             d eps       ncg     rms          rms(c)
DAV:   1    -0.116288655285E+04   -0.42648E-04   -0.25752E-01 12320   0.568E-01    0.154E-01
RMM:   2    -0.116288732251E+04   -0.76967E-03   -0.62963E-03 12588   0.993E-02    0.890E-02
RMM:   3    -0.116288737281E+04   -0.50296E-04   -0.31838E-04  8443   0.341E-02    0.528E-02
RMM:   4    -0.116288740223E+04   -0.29415E-04   -0.94314E-05  7139   0.127E-02    0.305E-02
RMM:   5    -0.116288745173E+04   -0.49508E-04   -0.55886E-05  6947   0.878E-03    0.206E-02
RMM:   6    -0.116288747921E+04   -0.27472E-04   -0.23187E-05  6611   0.601E-03    0.196E-02
RMM:   7    -0.116288750898E+04   -0.29777E-04   -0.18580E-05  5918   0.526E-03    0.192E-02
RMM:   8    -0.116288757322E+04   -0.64238E-04   -0.51174E-05  6331   0.752E-03
  21 F= -.11628876E+04 E0= -.11628875E+04  d E =-.101209E-02  mag=     5.9997
