       N       E                     dE             d eps       ncg     rms          rms(c)
DAV:   1    -0.116193818098E+04   -0.11619E+04   -0.35228E-06  7408   0.284E-03    0.297E-03
RMM:   2    -0.116193818103E+04   -0.53042E-07   -0.62067E-07  2879   0.198E-03    0.282E-03
RMM:   3    -0.116193818105E+04   -0.12660E-07   -0.79084E-08  1240   0.170E-03    0.692E-04
RMM:   4    -0.116193818107E+04   -0.22832E-07   -0.30554E-08   950   0.168E-03    0.541E-04
RMM:   5    -0.116193818108E+04   -0.14319E-07   -0.24781E-08   794   0.168E-03    0.491E-04
RMM:   6    -0.116193818111E+04   -0.25291E-07   -0.37834E-08   738   0.169E-03    0.540E-04
RMM:   7    -0.116193818111E+04   -0.14115E-08   -0.95176E-09   614   0.168E-03    0.498E-04
RMM:   8    -0.116193818111E+04    0.17753E-08   -0.20438E-09   531   0.167E-03
   1 F= -.11619382E+04 E0= -.11619382E+04  d E =-.116194E+04  mag=     6.0000
       N       E                     dE             d eps       ncg     rms          rms(c)
DAV:   1    -0.116193824691E+04   -0.65804E-04   -0.11840E-01 12160   0.390E-01    0.869E-02
RMM:   2    -0.116193844910E+04   -0.20218E-03   -0.31201E-03 12203   0.678E-02    0.634E-02
RMM:   3    -0.116193841582E+04    0.33283E-04   -0.13085E-04  7164   0.237E-02    0.395E-02
RMM:   4    -0.116193839423E+04    0.21590E-04   -0.89922E-05  7038   0.110E-02    0.202E-02
RMM:   5    -0.116193839327E+04    0.95437E-06   -0.15921E-05  6402   0.592E-03    0.977E-03
RMM:   6    -0.116193839367E+04   -0.39869E-06   -0.65991E-06  5671   0.367E-03    0.812E-03
RMM:   7    -0.116193839398E+04   -0.30469E-06   -0.30219E-06  4428   0.300E-03    0.505E-03
RMM:   8    -0.116193839418E+04   -0.20045E-06   -0.18253E-06  3446   0.238E-03
   2 F= -.11619384E+04 E0= -.11619384E+04  d E =-.213068E-03  mag=     6.0000
       N       E                     dE             d eps       ncg     rms          rms(c)
DAV:   1    -0.116193849502E+04   -0.10104E-03   -0.53572E-02 12032   0.263E-01    0.618E-02
RMM:   2    -0.116193856685E+04   -0.71828E-04   -0.15319E-03 12030   0.487E-02    0.541E-02
RMM:   3    -0.116193854820E+04    0.18648E-04   -0.65953E-05  6871   0.167E-02    0.351E-02
RMM:   4    -0.116193853298E+04    0.15213E-04   -0.55515E-05  6861   0.832E-03    0.185E-02
RMM:   5    -0.116193853061E+04    0.23794E-05   -0.11597E-05  6188   0.485E-03    0.789E-03
RMM:   6    -0.116193853085E+04   -0.24051E-06   -0.42101E-06  4870   0.296E-03    0.649E-03
RMM:   7    -0.116193853098E+04   -0.12998E-06   -0.15822E-06  3125   0.251E-03    0.418E-03
RMM:   8    -0.116193853107E+04   -0.92419E-07   -0.93916E-07  2563   0.206E-03
   3 F= -.11619385E+04 E0= -.11619385E+04  d E =-.136892E-03  mag=     6.0000
       N       E                     dE             d eps       ncg     rms          rms(c)
DAV:   1    -0.116193860249E+04   -0.71516E-04   -0.70010E-02 12032   0.301E-01    0.571E-02
RMM:   2    -0.116193873532E+04   -0.13283E-03   -0.17352E-03 12133   0.512E-02    0.438E-02
RMM:   3    -0.116193872653E+04    0.87852E-05   -0.69117E-05  6602   0.172E-02    0.281E-02
RMM:   4    -0.116193871985E+04    0.66851E-05   -0.35360E-05  6540   0.707E-03    0.165E-02
RMM:   5    -0.116193871880E+04    0.10522E-05   -0.83129E-06  5727   0.432E-03    0.837E-03
RMM:   6    -0.116193871907E+04   -0.27593E-06   -0.36877E-06  4387   0.291E-03    0.559E-03
RMM:   7    -0.116193871924E+04   -0.16193E-06   -0.16340E-06  3193   0.251E-03    0.377E-03
RMM:   8    -0.116193871934E+04   -0.10317E-06   -0.87132E-07  2477   0.212E-03
   4 F= -.11619387E+04 E0= -.11619387E+04  d E =-.188271E-03  mag=     6.0000
       N       E                     dE             d eps       ncg     rms          rms(c)
DAV:   1    -0.116193869796E+04    0.21280E-04   -0.10563E-01 12096   0.371E-01    0.650E-02
RMM:   2    -0.116193892077E+04   -0.22281E-03   -0.25286E-03 12321   0.611E-02    0.421E-02
RMM:   3    -0.116193891223E+04    0.85350E-05   -0.98676E-05  6834   0.205E-02    0.266E-02
RMM:   4    -0.116193890671E+04    0.55214E-05   -0.40985E-05  6674   0.791E-03    0.149E-02
RMM:   5    -0.116193890722E+04   -0.50884E-06   -0.93719E-06  5983   0.468E-03    0.789E-03
RMM:   6    -0.116193890765E+04   -0.42842E-06   -0.44677E-06  4661   0.317E-03    0.538E-03
RMM:   7    -0.116193890790E+04   -0.25639E-06   -0.22851E-06  3769   0.279E-03    0.357E-03
RMM:   8    -0.116193890805E+04   -0.15010E-06   -0.12263E-06  2735   0.226E-03
   5 F= -.11619389E+04 E0= -.11619389E+04  d E =-.188714E-03  mag=     6.0000
       N       E                     dE             d eps       ncg     rms          rms(c)
DAV:   1    -0.116193883852E+04    0.69379E-04   -0.13880E-01 12160   0.424E-01    0.723E-02
RMM:   2    -0.116193913629E+04   -0.29776E-03   -0.32651E-03 12366   0.689E-02    0.472E-02
RMM:   3    -0.116193912767E+04    0.86198E-05   -0.12921E-04  7079   0.231E-02    0.296E-02
RMM:   4    -0.116193912211E+04    0.55622E-05   -0.46675E-05  6808   0.850E-03    0.140E-02
RMM:   5    -0.116193912292E+04   -0.81027E-06   -0.11799E-05  6278   0.500E-03    0.581E-03
RMM:   6    -0.116193912351E+04   -0.59255E-06   -0.53679E-06  5166   0.344E-03    0.450E-03
RMM:   7    -0.116193912382E+04   -0.31179E-06   -0.27670E-06  4051   0.292E-03    0.289E-03
RMM:   8    -0.116193912401E+04   -0.18557E-06   -0.15645E-06  3050   0.236E-03
   6 F= -.11619391E+04 E0= -.11619391E+04  d E =-.215953E-03  mag=     6.0000
       N       E                     dE             d eps       ncg     rms          rms(c)
DAV:   1    -0.116193907759E+04    0.46226E-04   -0.10830E-01 12032   0.375E-01    0.636E-02
RMM:   2    -0.116193931277E+04   -0.23517E-03   -0.25539E-03 12246   0.611E-02    0.403E-02
RMM:   3    -0.116193930673E+04    0.60355E-05   -0.10129E-04  6897   0.208E-02    0.255E-02
RMM:   4    -0.116193930317E+04    0.35600E-05   -0.37945E-05  6742   0.758E-03    0.179E-02
RMM:   5    -0.116193930390E+04   -0.72909E-06   -0.93978E-06  6067   0.463E-03    0.652E-03
RMM:   6    -0.116193930443E+04   -0.52575E-06   -0.47106E-06  4685   0.325E-03    0.529E-03
RMM:   7    -0.116193930471E+04   -0.28018E-06   -0.24769E-06  3957   0.285E-03    0.306E-03
RMM:   8    -0.116193930486E+04   -0.15544E-06   -0.12888E-06  2797   0.227E-03
   7 F= -.11619393E+04 E0= -.11619393E+04  d E =-.180858E-03  mag=     6.0000
       N       E                     dE             d eps       ncg     rms          rms(c)
DAV:   1    -0.116193933712E+04   -0.32411E-04   -0.28962E-02 12160   0.194E-01    0.325E-02
RMM:   2    -0.116193940001E+04   -0.62890E-04   -0.67468E-04 10415   0.319E-02    0.203E-02
RMM:   3    -0.116193939978E+04    0.22534E-06   -0.32075E-05  6547   0.115E-02    0.127E-02
RMM:   4    -0.116193939938E+04    0.40726E-06   -0.11712E-05  6069   0.430E-03    0.891E-03
RMM:   5    -0.116193939957E+04   -0.18935E-06   -0.28486E-06  4135   0.292E-03    0.370E-03
RMM:   6    -0.116193939972E+04   -0.15386E-06   -0.13952E-06  2821   0.224E-03    0.205E-03
RMM:   7    -0.116193939980E+04   -0.75932E-07   -0.64998E-07  2199   0.215E-03    0.112E-03
RMM:   8    -0.116193939983E+04   -0.35725E-07   -0.23496E-07  1560   0.195E-03
   8 F= -.11619394E+04 E0= -.11619394E+04  d E =-.949675E-04  mag=     6.0000
       N       E                     dE             d eps       ncg     rms          rms(c)
DAV:   1    -0.116193942334E+04   -0.23542E-04   -0.32926E-03 11888   0.653E-02    0.111E-02
RMM:   2    -0.116193943027E+04   -0.69359E-05   -0.76087E-05  6448   0.114E-02    0.670E-03
RMM:   3    -0.116193943112E+04   -0.84352E-06   -0.71078E-06  5439   0.480E-03    0.458E-03
RMM:   4    -0.116193943111E+04    0.76980E-08   -0.14182E-06  2665   0.227E-03    0.316E-03
RMM:   5    -0.116193943110E+04    0.12456E-07   -0.65386E-07  2072   0.214E-03    0.106E-03
RMM:   6    -0.116193943112E+04   -0.21828E-07   -0.14267E-07  1185   0.182E-03    0.590E-04
RMM:   7    -0.116193943112E+04   -0.63155E-08   -0.47602E-08  1041   0.180E-03    0.444E-04
RMM:   8    -0.116193943113E+04   -0.41764E-08   -0.16962E-08   940   0.179E-03
   9 F= -.11619394E+04 E0= -.11619394E+04  d E =-.312973E-04  mag=     6.0000
       N       E                     dE             d eps       ncg     rms          rms(c)
DAV:   1    -0.116193938736E+04    0.43765E-04   -0.33148E-03 10800   0.648E-02    0.118E-02
RMM:   2    -0.116193939340E+04   -0.60400E-05   -0.71874E-05  6119   0.111E-02    0.716E-03
RMM:   3    -0.116193939395E+04   -0.55443E-06   -0.60771E-06  5326   0.454E-03    0.480E-03
RMM:   4    -0.116193939377E+04    0.18784E-06   -0.74618E-07  2139   0.204E-03    0.313E-03
RMM:   5    -0.116193939368E+04    0.87428E-07   -0.26263E-07  1430   0.186E-03    0.728E-04
RMM:   6    -0.116193939368E+04   -0.41764E-08   -0.37737E-08   825   0.177E-03    0.395E-04
RMM:   7    -0.116193939368E+04   -0.18772E-08   -0.74104E-09   666   0.176E-03    0.260E-04
RMM:   8    -0.116193939369E+04   -0.35943E-08   -0.62762E-09   612   0.176E-03
  10 F= -.11619394E+04 E0= -.11619394E+04  d E =0.374407E-04  mag=     6.0000
       N       E                     dE             d eps       ncg     rms          rms(c)
DAV:   1    -0.116193859459E+04    0.79910E-03   -0.23753E-01 12208   0.553E-01    0.913E-02
RMM:   2    -0.116193910863E+04   -0.51404E-03   -0.54765E-03 12335   0.894E-02    0.576E-02
RMM:   3    -0.116193910240E+04    0.62310E-05   -0.24245E-04  7645   0.312E-02    0.370E-02
RMM:   4    -0.116193909282E+04    0.95800E-05   -0.64244E-05  6475   0.104E-02    0.199E-02
RMM:   5    -0.116193909462E+04   -0.17982E-05   -0.16395E-05  5854   0.634E-03    0.845E-03
RMM:   6    -0.116193909568E+04   -0.10642E-05   -0.82231E-06  5089   0.407E-03    0.587E-03
RMM:   7    -0.116193909615E+04   -0.46974E-06   -0.42218E-06  4102   0.347E-03    0.382E-03
RMM:   8    -0.116193909641E+04   -0.25882E-06   -0.25775E-06  3125   0.258E-03
  11 F= -.11619391E+04 E0= -.11619391E+04  d E =0.297277E-03  mag=     6.0000
       N       E                     dE             d eps       ncg     rms          rms(c)
DAV:   1    -0.116193894894E+04    0.14721E-03   -0.17735E-02 12048   0.150E-01    0.313E-02
RMM:   2    -0.116193898173E+04   -0.32789E-04   -0.44602E-04  9933   0.266E-02    0.250E-02
RMM:   3    -0.116193898018E+04    0.15523E-05   -0.24666E-05  6205   0.965E-03    0.152E-02
RMM:   4    -0.116193897845E+04    0.17217E-05   -0.11573E-05  5814   0.431E-03    0.926E-03
RMM:   5    -0.116193897795E+04    0.50013E-06   -0.30562E-06  4453   0.303E-03    0.211E-03
RMM:   6    -0.116193897810E+04   -0.14392E-06   -0.13157E-06  2663   0.213E-03    0.145E-03
RMM:   7    -0.116193897815E+04   -0.52489E-07   -0.52244E-07  2127   0.216E-03    0.933E-04
RMM:   8    -0.116193897817E+04   -0.19849E-07   -0.11372E-07  1456   0.185E-03
  12 F= -.11619390E+04 E0= -.11619390E+04  d E =0.118240E-03  mag=     6.0000
       N       E                     dE             d eps       ncg     rms          rms(c)
DAV:   1    -0.116193888099E+04    0.97161E-04   -0.13497E-02 12032   0.134E-01    0.296E-02
RMM:   2    -0.116193890449E+04   -0.23499E-04   -0.32508E-04  8063   0.237E-02    0.246E-02
RMM:   3    -0.116193890512E+04   -0.63652E-06   -0.24955E-05  6181   0.954E-03    0.146E-02
RMM:   4    -0.116193890407E+04    0.10575E-05   -0.81486E-06  5755   0.421E-03    0.135E-02
RMM:   5    -0.116193890363E+04    0.44008E-06   -0.27733E-06  4578   0.300E-03    0.533E-03
RMM:   6    -0.116193890357E+04    0.57844E-07   -0.12597E-06  2867   0.213E-03    0.207E-03
RMM:   7    -0.116193890362E+04   -0.45940E-07   -0.44328E-07  2176   0.198E-03    0.134E-03
RMM:   8    -0.116193890362E+04   -0.48167E-08   -0.73183E-08  1273   0.176E-03
  13 F= -.11619389E+04 E0= -.11619389E+04  d E =0.745502E-04  mag=     6.0000
       N       E                     dE             d eps       ncg     rms          rms(c)
DAV:   1    -0.116193884222E+04    0.61398E-04   -0.46472E-03 11760   0.797E-02    0.162E-02
RMM:   2    -0.116193885083E+04   -0.86097E-05   -0.10892E-04  6490   0.141E-02    0.122E-02
RMM:   3    -0.116193885177E+04   -0.93777E-06   -0.10483E-05  6095   0.603E-03    0.868E-03
RMM:   4    -0.116193885164E+04    0.12398E-06   -0.24878E-06  4466   0.276E-03    0.681E-03
RMM:   5    -0.116193885149E+04    0.14782E-06   -0.97996E-07  3102   0.230E-03    0.278E-03
RMM:   6    -0.116193885146E+04    0.28944E-07   -0.34478E-07  1582   0.187E-03    0.961E-04
RMM:   7    -0.116193885148E+04   -0.13897E-07   -0.17295E-07  1321   0.183E-03    0.907E-04
RMM:   8    -0.116193885148E+04    0.16880E-08   -0.46660E-09   945   0.177E-03
  14 F= -.11619389E+04 E0= -.11619388E+04  d E =0.521434E-04  mag=     6.0000
       N       E                     dE             d eps       ncg     rms          rms(c)
DAV:   1    -0.116193882800E+04    0.23474E-04   -0.20655E-03 11808   0.531E-02    0.106E-02
RMM:   2    -0.116193883208E+04   -0.40754E-05   -0.50260E-05  6320   0.962E-03    0.770E-03
RMM:   3    -0.116193883257E+04   -0.49450E-06   -0.49243E-06  5231   0.419E-03    0.574E-03
RMM:   4    -0.116193883250E+04    0.71028E-07   -0.74993E-07  2213   0.206E-03    0.387E-03
RMM:   5    -0.116193883241E+04    0.92943E-07   -0.34771E-07  1822   0.197E-03    0.153E-03
RMM:   6    -0.116193883240E+04    0.59517E-08   -0.93754E-08  1312   0.180E-03    0.691E-04
RMM:   7    -0.116193883241E+04   -0.96043E-09   -0.31439E-08   999   0.179E-03    0.282E-04
RMM:   8    -0.116193883241E+04   -0.26193E-09   -0.19503E-08   877   0.178E-03
  15 F= -.11619388E+04 E0= -.11619388E+04  d E =0.190712E-04  mag=     6.0000
       N       E                     dE             d eps       ncg     rms          rms(c)
DAV:   1    -0.116193883253E+04   -0.12187E-06   -0.45507E-06  6664   0.266E-03    0.985E-04
RMM:   2    -0.116193883251E+04    0.12238E-07   -0.81510E-09  1006   0.128E-03    0.582E-04
RMM:   3    -0.116193883251E+04    0.40163E-08   -0.13449E-09   638   0.127E-03    0.350E-04
RMM:   4    -0.116193883251E+04    0.40454E-08   -0.20994E-10   517   0.127E-03    0.832E-05
RMM:   5    -0.116193883251E+04   -0.33469E-09    0.00000E+00   480   0.127E-03    0.569E-05
RMM:   6    -0.116193883251E+04   -0.36380E-09    0.00000E+00   439   0.127E-03    0.467E-05
RMM:   7    -0.116193883251E+04   -0.43656E-10   -0.64729E-10   416   0.127E-03    0.308E-05
RMM:   8    -0.116193883251E+04   -0.18917E-09   -0.20739E-10   384   0.127E-03
  16 F= -.11619388E+04 E0= -.11619388E+04  d E =-.102242E-06  mag=     6.0000
       N       E                     dE             d eps       ncg     rms          rms(c)
DAV:   1    -0.116193883306E+04   -0.55696E-06   -0.16967E-04  7352   0.155E-02    0.327E-03
RMM:   2    -0.116193883362E+04   -0.55811E-06   -0.64468E-06  5764   0.396E-03    0.199E-03
RMM:   3    -0.116193883366E+04   -0.34226E-07   -0.22655E-07  1667   0.185E-03    0.129E-03
RMM:   4    -0.116193883364E+04    0.12486E-07   -0.13005E-09   371   0.156E-03    0.761E-04
RMM:   5    -0.116193883364E+04    0.75815E-08    0.00000E+00   350   0.156E-03    0.120E-04
RMM:   6    -0.116193883364E+04    0.26193E-09    0.00000E+00   324   0.156E-03    0.647E-05
RMM:   7    -0.116193883364E+04   -0.64028E-09   -0.31379E-10   299   0.156E-03    0.367E-05
RMM:   8    -0.116193883364E+04    0.26193E-09   -0.30516E-10   292   0.157E-03
  17 F= -.11619388E+04 E0= -.11619388E+04  d E =-.112916E-05  mag=     6.0000
       N       E                     dE             d eps       ncg     rms          rms(c)
DAV:   1    -0.116193883372E+04   -0.85885E-07   -0.40479E-05  6384   0.757E-03    0.186E-03
RMM:   2    -0.116193883392E+04   -0.19318E-06   -0.24074E-06  4264   0.272E-03    0.163E-03
RMM:   3    -0.116193883391E+04    0.15134E-08   -0.57856E-09   570   0.145E-03    0.970E-04
RMM:   4    -0.116193883390E+04    0.15963E-07   -0.12554E-09   362   0.145E-03    0.460E-04
RMM:   5    -0.116193883389E+04    0.42928E-08   -0.67809E-10   346   0.145E-03    0.116E-04
RMM:   6    -0.116193883389E+04   -0.37835E-09   -0.53606E-10   306   0.145E-03    0.626E-05
RMM:   7    -0.116193883389E+04    0.52387E-09   -0.21954E-10   293   0.146E-03    0.249E-05
RMM:   8    -0.116193883389E+04    0.24738E-09   -0.21048E-10   274   0.146E-03
  18 F= -.11619388E+04 E0= -.11619388E+04  d E =-.257161E-06  mag=     6.0000
       N       E                     dE             d eps       ncg     rms          rms(c)
DAV:   1    -0.116193880883E+04    0.25062E-04   -0.10187E-02 12032   0.116E-01    0.256E-02
RMM:   2    -0.116193882394E+04   -0.15103E-04   -0.23446E-04  6950   0.204E-02    0.182E-02
RMM:   3    -0.116193882410E+04   -0.16448E-06   -0.20163E-05  6121   0.873E-03    0.108E-02
RMM:   4    -0.116193882304E+04    0.10641E-05   -0.65934E-06  5501   0.365E-03    0.801E-03
RMM:   5    -0.116193882267E+04    0.37023E-06   -0.16125E-06  3630   0.259E-03    0.271E-03
RMM:   6    -0.116193882270E+04   -0.30908E-07   -0.55808E-07  2105   0.195E-03    0.108E-03
RMM:   7    -0.116193882272E+04   -0.22672E-07   -0.17900E-07  1742   0.193E-03    0.620E-04
RMM:   8    -0.116193882273E+04   -0.96479E-08   -0.17396E-08  1054   0.180E-03
  19 F= -.11619388E+04 E0= -.11619388E+04  d E =0.111653E-04  mag=     6.0000
       N       E                     dE             d eps       ncg     rms          rms(c)
DAV:   1    -0.116193881983E+04    0.28882E-05   -0.11338E-02 12032   0.123E-01    0.223E-02
RMM:   2    -0.116193884163E+04   -0.21803E-04   -0.24966E-04  6987   0.206E-02    0.150E-02
RMM:   3    -0.116193884309E+04   -0.14556E-05   -0.19770E-05  6133   0.874E-03    0.865E-03
RMM:   4    -0.116193884304E+04    0.51150E-07   -0.59411E-06  5335   0.345E-03    0.652E-03
RMM:   5    -0.116193884291E+04    0.13139E-06   -0.17198E-06  3718   0.260E-03    0.227E-03
RMM:   6    -0.116193884293E+04   -0.26965E-07   -0.34124E-07  1641   0.181E-03    0.834E-04
RMM:   7    -0.116193884295E+04   -0.12398E-07   -0.10752E-07  1333   0.182E-03    0.471E-04
RMM:   8    -0.116193884295E+04   -0.17462E-08   -0.13171E-08   886   0.175E-03
  20 F= -.11619388E+04 E0= -.11619388E+04  d E =-.202191E-04  mag=     6.0000
       N       E                     dE             d eps       ncg     rms          rms(c)
DAV:   1    -0.116193885471E+04   -0.11764E-04   -0.21107E-03 11352   0.530E-02    0.954E-03
RMM:   2    -0.116193885912E+04   -0.44108E-05   -0.49461E-05  6161   0.928E-03    0.572E-03
RMM:   3    -0.116193885968E+04   -0.56399E-06   -0.47544E-06  4983   0.406E-03    0.399E-03
RMM:   4    -0.116193885966E+04    0.23734E-07   -0.74287E-07  1939   0.195E-03    0.285E-03
RMM:   5    -0.116193885961E+04    0.48574E-07   -0.33105E-07  1510   0.191E-03    0.949E-04
RMM:   6    -0.116193885962E+04   -0.58353E-08   -0.51839E-08   908   0.171E-03    0.407E-04
RMM:   7    -0.116193885962E+04   -0.96043E-09   -0.11444E-08   781   0.168E-03    0.264E-04
RMM:   8    -0.116193885962E+04   -0.71304E-09   -0.12041E-08   736   0.168E-03
  21 F= -.11619389E+04 E0= -.11619389E+04  d E =-.166724E-04  mag=     6.0000
       N       E                     dE             d eps       ncg     rms          rms(c)
DAV:   1    -0.116193895242E+04   -0.92803E-04   -0.69872E-03 12032   0.982E-02    0.229E-02
RMM:   2    -0.116193896382E+04   -0.11399E-04   -0.16481E-04  6437   0.173E-02    0.161E-02
RMM:   3    -0.116193896443E+04   -0.60421E-06   -0.14361E-05  6130   0.692E-03    0.972E-03
RMM:   4    -0.116193896390E+04    0.52837E-06   -0.39547E-06  5360   0.323E-03    0.768E-03
RMM:   5    -0.116193896367E+04    0.22279E-06   -0.11469E-06  3586   0.230E-03    0.280E-03
RMM:   6    -0.116193896367E+04    0.46857E-08   -0.26187E-07  1994   0.184E-03    0.772E-04
RMM:   7    -0.116193896367E+04   -0.55297E-08   -0.58242E-08  1241   0.178E-03    0.442E-04
RMM:   8    -0.116193896368E+04   -0.32160E-08   -0.82973E-09   875   0.175E-03
  22 F= -.11619390E+04 E0= -.11619390E+04  d E =-.104058E-03  mag=     6.0000
       N       E                     dE             d eps       ncg     rms          rms(c)
DAV:   1    -0.116193700791E+04    0.19558E-02   -0.12085E+00 12616   0.125E+00    0.207E-01
RMM:   2    -0.116193961184E+04   -0.26039E-02   -0.27754E-02 12391   0.200E-01    0.130E-01
RMM:   3    -0.116193958847E+04    0.23367E-04   -0.13361E-03 11627   0.697E-02    0.822E-02
RMM:   4    -0.116193953865E+04    0.49826E-04   -0.33316E-04  8756   0.212E-02    0.410E-02
RMM:   5    -0.116193954163E+04   -0.29789E-05   -0.63199E-05  7050   0.124E-02    0.118E-02
RMM:   6    -0.116193954581E+04   -0.41886E-05   -0.30414E-05  6846   0.768E-03    0.925E-03
RMM:   7    -0.116193954749E+04   -0.16711E-05   -0.16255E-05  6447   0.604E-03    0.616E-03
RMM:   8    -0.116193954860E+04   -0.11132E-05   -0.11337E-05  5976   0.465E-03
  23 F= -.11619395E+04 E0= -.11619395E+04  d E =-.584921E-03  mag=     6.0000
       N       E                     dE             d eps       ncg     rms          rms(c)
DAV:   1    -0.116193940954E+04    0.13795E-03   -0.13047E-01 12288   0.419E-01    0.786E-02
RMM:   2    -0.116193969133E+04   -0.28179E-03   -0.32719E-03 12781   0.703E-02    0.538E-02
RMM:   3    -0.116193967756E+04    0.13772E-04   -0.12231E-04  7216   0.211E-02    0.336E-02
RMM:   4    -0.116193967046E+04    0.71000E-05   -0.47667E-05  6973   0.889E-03    0.158E-02
RMM:   5    -0.116193967060E+04   -0.14577E-06   -0.14688E-05  6680   0.576E-03    0.852E-03
RMM:   6    -0.116193967133E+04   -0.72519E-06   -0.68841E-06  6133   0.391E-03    0.548E-03
RMM:   7    -0.116193967175E+04   -0.41512E-06   -0.34786E-06  4742   0.323E-03    0.371E-03
RMM:   8    -0.116193967206E+04   -0.31888E-06   -0.23727E-06  3994   0.255E-03
  24 F= -.11619397E+04 E0= -.11619397E+04  d E =-.123465E-03  mag=     6.0000
       N       E                     dE             d eps       ncg     rms          rms(c)
DAV:   1    -0.116193959194E+04    0.79806E-04   -0.65249E-02 12120   0.298E-01    0.558E-02
RMM:   2    -0.116193973177E+04   -0.13983E-03   -0.16048E-03 12218   0.498E-02    0.364E-02
RMM:   3    -0.116193972812E+04    0.36537E-05   -0.67777E-05  6821   0.178E-02    0.227E-02
RMM:   4    -0.116193972584E+04    0.22731E-05   -0.27879E-05  6753   0.650E-03    0.134E-02
RMM:   5    -0.116193972614E+04   -0.29751E-06   -0.72626E-06  6021   0.410E-03    0.681E-03
RMM:   6    -0.116193972654E+04   -0.39478E-06   -0.35196E-06  4622   0.293E-03    0.404E-03
RMM:   7    -0.116193972674E+04   -0.20288E-06   -0.17022E-06  3605   0.257E-03    0.253E-03
RMM:   8    -0.116193972688E+04   -0.14393E-06   -0.94875E-07  2730   0.220E-03
  25 F= -.11619397E+04 E0= -.11619397E+04  d E =-.548196E-04  mag=     6.0000
       N       E                     dE             d eps       ncg     rms          rms(c)
DAV:   1    -0.116193956980E+04    0.15693E-03   -0.90041E-02 12288   0.350E-01    0.637E-02
RMM:   2    -0.116193976325E+04   -0.19344E-03   -0.21808E-03 12366   0.575E-02    0.394E-02
RMM:   3    -0.116193975825E+04    0.49911E-05   -0.87288E-05  6914   0.198E-02    0.248E-02
RMM:   4    -0.116193975509E+04    0.31692E-05   -0.34148E-05  6790   0.738E-03    0.159E-02
RMM:   5    -0.116193975588E+04   -0.79954E-06   -0.88168E-06  6386   0.457E-03    0.725E-03
RMM:   6    -0.116193975636E+04   -0.47676E-06   -0.42869E-06  4902   0.315E-03    0.481E-03
RMM:   7    -0.116193975662E+04   -0.25688E-06   -0.21753E-06  4031   0.274E-03    0.309E-03
RMM:   8    -0.116193975677E+04   -0.14747E-06   -0.10704E-06  2763   0.222E-03
  26 F= -.11619398E+04 E0= -.11619397E+04  d E =-.298822E-04  mag=     6.0000
       N       E                     dE             d eps       ncg     rms          rms(c)
DAV:   1    -0.116193962111E+04    0.13551E-03   -0.63024E-02 12128   0.293E-01    0.546E-02
RMM:   2    -0.116193975637E+04   -0.13525E-03   -0.15391E-03 12125   0.484E-02    0.337E-02
RMM:   3    -0.116193975308E+04    0.32833E-05   -0.64286E-05  6830   0.171E-02    0.214E-02
RMM:   4    -0.116193975105E+04    0.20356E-05   -0.25855E-05  6725   0.629E-03    0.144E-02
RMM:   5    -0.116193975162E+04   -0.57381E-06   -0.64379E-06  5747   0.395E-03    0.597E-03
RMM:   6    -0.116193975197E+04   -0.35182E-06   -0.30967E-06  4311   0.284E-03    0.420E-03
RMM:   7    -0.116193975217E+04   -0.19353E-06   -0.15843E-06  3487   0.254E-03    0.240E-03
RMM:   8    -0.116193975228E+04   -0.11636E-06   -0.71842E-07  2331   0.214E-03
  27 F= -.11619398E+04 E0= -.11619397E+04  d E =0.448212E-05  mag=     6.0000
