       N       E                     dE             d eps       ncg     rms          rms(c)
DAV:   1    -0.116312455960E+04   -0.11631E+04   -0.26990E-05  8120   0.128E-02    0.127E-02
RMM:   2    -0.116312457996E+04   -0.20361E-04   -0.21992E-05  6573   0.708E-03    0.164E-02
RMM:   3    -0.116312458576E+04   -0.57977E-05   -0.90568E-06  5633   0.359E-03    0.126E-02
RMM:   4    -0.116312458467E+04    0.10925E-05   -0.35416E-06  4976   0.347E-03    0.128E-02
RMM:   5    -0.116312458480E+04   -0.12586E-06   -0.18346E-06  3375   0.237E-03    0.132E-02
RMM:   6    -0.116312458779E+04   -0.29986E-05   -0.12042E-06  3066   0.251E-03    0.132E-02
RMM:   7    -0.116312460336E+04   -0.15565E-04   -0.60827E-06  4105   0.320E-03    0.206E-02
RMM:   8    -0.116312458826E+04    0.15096E-04   -0.34459E-06  3702   0.349E-03
   1 F= -.11631246E+04 E0= -.11631246E+04  d E =-.116312E+04  mag=     6.0000
       N       E                     dE             d eps       ncg     rms          rms(c)
DAV:   1    -0.116312479104E+04   -0.18768E-03   -0.13933E+00 12784   0.133E+00    0.450E-01
RMM:   2    -0.116312756788E+04   -0.27768E-02   -0.43496E-02 12292   0.268E-01    0.428E-01
RMM:   3    -0.116312732985E+04    0.23803E-03   -0.21876E-03 12522   0.813E-02    0.270E-01
RMM:   4    -0.116312693852E+04    0.39133E-03   -0.14605E-03 11408   0.409E-02    0.129E-01
RMM:   5    -0.116312685204E+04    0.86478E-04   -0.30905E-04  9834   0.261E-02    0.432E-02
RMM:   6    -0.116312686065E+04   -0.86157E-05   -0.50025E-05  7325   0.935E-03    0.290E-02
RMM:   7    -0.116312687618E+04   -0.15521E-04   -0.26565E-05  7116   0.691E-03    0.202E-02
RMM:   8    -0.116312689712E+04   -0.20942E-04   -0.21871E-05  6938   0.644E-03
   2 F= -.11631269E+04 E0= -.11631269E+04  d E =-.230885E-02  mag=     6.0000
       N       E                     dE             d eps       ncg     rms          rms(c)
DAV:   1    -0.116312936894E+04   -0.24928E-02   -0.31442E-01 12896   0.638E-01    0.214E-01
RMM:   2    -0.116312968937E+04   -0.32043E-03   -0.11013E-02 12250   0.133E-01    0.229E-01
RMM:   3    -0.116312956792E+04    0.12145E-03   -0.49837E-04 11099   0.388E-02    0.157E-01
RMM:   4    -0.116312945366E+04    0.11425E-03   -0.48488E-04 10526   0.231E-02    0.804E-02
RMM:   5    -0.116312941964E+04    0.34021E-04   -0.10090E-04  8229   0.157E-02    0.279E-02
RMM:   6    -0.116312942745E+04   -0.78091E-05   -0.29082E-05  6964   0.651E-03    0.221E-02
RMM:   7    -0.116312943553E+04   -0.80822E-05   -0.11987E-05  6095   0.525E-03    0.180E-02
RMM:   8    -0.116312945118E+04   -0.15648E-04   -0.14157E-05  6357   0.457E-03
   3 F= -.11631295E+04 E0= -.11631294E+04  d E =-.255406E-02  mag=     6.0000
       N       E                     dE             d eps       ncg     rms          rms(c)
DAV:   1    -0.116312992367E+04   -0.48814E-03   -0.21734E-01 12688   0.524E-01    0.150E-01
RMM:   2    -0.116313051073E+04   -0.58706E-03   -0.53663E-03 12401   0.926E-02    0.103E-01
RMM:   3    -0.116313052941E+04   -0.18678E-04   -0.26174E-04  8210   0.322E-02    0.611E-02
RMM:   4    -0.116313052858E+04    0.82502E-06   -0.98739E-05  7144   0.128E-02    0.296E-02
RMM:   5    -0.116313054376E+04   -0.15178E-04   -0.35292E-05  6922   0.774E-03    0.144E-02
RMM:   6    -0.116313055195E+04   -0.81908E-05   -0.13101E-05  6557   0.546E-03    0.123E-02
RMM:   7    -0.116313056127E+04   -0.93176E-05   -0.86896E-06  5500   0.391E-03    0.109E-02
RMM:   8    -0.116313058042E+04   -0.19154E-04   -0.15210E-05  5760   0.466E-03
   4 F= -.11631306E+04 E0= -.11631306E+04  d E =-.112924E-02  mag=     6.0000
       N       E                     dE             d eps       ncg     rms          rms(c)
DAV:   1    -0.116313100055E+04   -0.43928E-03   -0.13112E-01 12408   0.407E-01    0.112E-01
RMM:   2    -0.116313135842E+04   -0.35787E-03   -0.32220E-03 12562   0.709E-02    0.735E-02
RMM:   3    -0.116313136845E+04   -0.10030E-04   -0.14693E-04  7324   0.242E-02    0.438E-02
RMM:   4    -0.116313137388E+04   -0.54301E-05   -0.61927E-05  6996   0.996E-03    0.238E-02
RMM:   5    -0.116313138578E+04   -0.11900E-04   -0.22258E-05  6748   0.610E-03    0.165E-02
RMM:   6    -0.116313139261E+04   -0.68325E-05   -0.88739E-06  6172   0.452E-03    0.114E-02
RMM:   7    -0.116313140014E+04   -0.75264E-05   -0.66299E-06  4870   0.345E-03    0.106E-02
RMM:   8    -0.116313141224E+04   -0.12103E-04   -0.85589E-06  5040   0.357E-03
   5 F= -.11631314E+04 E0= -.11631314E+04  d E =-.831819E-03  mag=     6.0000
       N       E                     dE             d eps       ncg     rms          rms(c)
DAV:   1    -0.116313148491E+04   -0.84769E-04   -0.41538E-01 12624   0.723E-01    0.186E-01
RMM:   2    -0.116313260487E+04   -0.11200E-02   -0.98780E-03 12707   0.123E-01    0.111E-01
RMM:   3    -0.116313263882E+04   -0.33951E-04   -0.49210E-04  9277   0.418E-02    0.650E-02
RMM:   4    -0.116313263197E+04    0.68530E-05   -0.12065E-04  7239   0.148E-02    0.317E-02
RMM:   5    -0.116313264861E+04   -0.16640E-04   -0.49424E-05  7004   0.967E-03    0.166E-02
RMM:   6    -0.116313265726E+04   -0.86450E-05   -0.18284E-05  6809   0.655E-03    0.124E-02
RMM:   7    -0.116313266678E+04   -0.95231E-05   -0.12422E-05  6324   0.487E-03    0.116E-02
RMM:   8    -0.116313268265E+04   -0.15868E-04   -0.13915E-05  5935   0.477E-03
   6 F= -.11631327E+04 E0= -.11631327E+04  d E =-.127040E-02  mag=     6.0000
       N       E                     dE             d eps       ncg     rms          rms(c)
DAV:   1    -0.116313207458E+04    0.59220E-03   -0.78880E-01 12592   0.998E-01    0.240E-01
RMM:   2    -0.116313411842E+04   -0.20438E-02   -0.18612E-02 12703   0.168E-01    0.145E-01
RMM:   3    -0.116313417393E+04   -0.55505E-04   -0.97380E-04 11105   0.576E-02    0.864E-02
RMM:   4    -0.116313415306E+04    0.20870E-04   -0.21441E-04  7759   0.190E-02    0.432E-02
RMM:   5    -0.116313417433E+04   -0.21272E-04   -0.83801E-05  7136   0.125E-02    0.197E-02
RMM:   6    -0.116313418628E+04   -0.11949E-04   -0.29225E-05  6961   0.822E-03    0.142E-02
RMM:   7    -0.116313420030E+04   -0.14023E-04   -0.20033E-05  6736   0.606E-03    0.132E-02
RMM:   8    -0.116313422096E+04   -0.20656E-04   -0.20693E-05  6465   0.585E-03
   7 F= -.11631342E+04 E0= -.11631342E+04  d E =-.153831E-02  mag=     6.0000
       N       E                     dE             d eps       ncg     rms          rms(c)
DAV:   1    -0.116313374583E+04    0.45447E-03   -0.64937E-01 12592   0.907E-01    0.203E-01
RMM:   2    -0.116313537445E+04   -0.16286E-02   -0.15368E-02 12768   0.152E-01    0.123E-01
RMM:   3    -0.116313540206E+04   -0.27608E-04   -0.76337E-04 10330   0.500E-02    0.758E-02
RMM:   4    -0.116313538890E+04    0.13161E-04   -0.16964E-04  7476   0.173E-02    0.383E-02
RMM:   5    -0.116313541251E+04   -0.23610E-04   -0.71738E-05  7075   0.113E-02    0.190E-02
RMM:   6    -0.116313542456E+04   -0.12054E-04   -0.25942E-05  6909   0.774E-03    0.140E-02
RMM:   7    -0.116313543960E+04   -0.15043E-04   -0.18860E-05  6670   0.580E-03    0.133E-02
RMM:   8    -0.116313546061E+04   -0.21007E-04   -0.19856E-05  6258   0.563E-03
   8 F= -.11631355E+04 E0= -.11631355E+04  d E =-.123965E-02  mag=     6.0000
       N       E                     dE             d eps       ncg     rms          rms(c)
DAV:   1    -0.116313527991E+04    0.15969E-03   -0.40008E-01 12608   0.713E-01    0.152E-01
RMM:   2    -0.116313625824E+04   -0.97833E-03   -0.94929E-03 12630   0.119E-01    0.933E-02
RMM:   3    -0.116313626937E+04   -0.11121E-04   -0.45576E-04  9002   0.401E-02    0.589E-02
RMM:   4    -0.116313626782E+04    0.15482E-05   -0.11693E-04  7207   0.142E-02    0.303E-02
RMM:   5    -0.116313628840E+04   -0.20581E-04   -0.48134E-05  7010   0.931E-03    0.174E-02
RMM:   6    -0.116313629832E+04   -0.99249E-05   -0.19187E-05  6811   0.649E-03    0.131E-02
RMM:   7    -0.116313631089E+04   -0.12569E-04   -0.13590E-05  6205   0.509E-03    0.125E-02
RMM:   8    -0.116313632894E+04   -0.18052E-04   -0.15425E-05  5859   0.479E-03
   9 F= -.11631363E+04 E0= -.11631363E+04  d E =-.868333E-03  mag=     6.0000
