       N       E                     dE             d eps       ncg     rms          rms(c)
DAV:   1    -0.116442167197E+04   -0.11644E+04   -0.28764E-06  3528   0.200E-03    0.186E-03
RMM:   2    -0.116442167196E+04    0.13300E-07   -0.95051E-09   746   0.147E-03    0.791E-04
RMM:   3    -0.116442167196E+04    0.40600E-08    0.00000E+00   346   0.145E-03    0.685E-04
RMM:   4    -0.116442167195E+04    0.31578E-08    0.00000E+00   274   0.146E-03    0.130E-04
RMM:   5    -0.116442167195E+04    0.24738E-09    0.00000E+00   238   0.146E-03    0.371E-05
RMM:   6    -0.116442167195E+04    0.13097E-09    0.00000E+00   222   0.146E-03    0.183E-05
RMM:   7    -0.116442167195E+04    0.17462E-09    0.00000E+00   199   0.146E-03    0.106E-05
RMM:   8    -0.116442167195E+04   -0.10186E-09    0.00000E+00   194   0.146E-03
   1 F= -.11644217E+04 E0= -.11644142E+04  d E =-.116442E+04  mag=     3.9762
       N       E                     dE             d eps       ncg     rms          rms(c)
DAV:   1    -0.116442180924E+04   -0.13729E-03   -0.21518E-01  6064   0.520E-01    0.961E-02
RMM:   2    -0.116442224614E+04   -0.43689E-03   -0.51110E-03  6050   0.854E-02    0.700E-02
RMM:   3    -0.116442222148E+04    0.24653E-04   -0.17698E-04  3862   0.201E-02    0.471E-02
RMM:   4    -0.116442220055E+04    0.20935E-04   -0.91694E-05  3530   0.102E-02    0.156E-02
RMM:   5    -0.116442219966E+04    0.88933E-06   -0.16741E-05  3278   0.488E-03    0.779E-03
RMM:   6    -0.116442220006E+04   -0.39750E-06   -0.47174E-06  2677   0.277E-03    0.580E-03
RMM:   7    -0.116442220023E+04   -0.17286E-06   -0.15714E-06  1880   0.219E-03    0.318E-03
RMM:   8    -0.116442220029E+04   -0.62952E-07   -0.49740E-07  1370   0.204E-03
   2 F= -.11644222E+04 E0= -.11644148E+04  d E =-.528340E-03  mag=     3.9762
       N       E                     dE             d eps       ncg     rms          rms(c)
DAV:   1    -0.116442234640E+04   -0.14617E-03   -0.40414E-02  6144   0.228E-01    0.482E-02
RMM:   2    -0.116442242707E+04   -0.80669E-04   -0.10602E-03  5833   0.389E-02    0.356E-02
RMM:   3    -0.116442241875E+04    0.83156E-05   -0.36706E-05  3408   0.950E-03    0.237E-02
RMM:   4    -0.116442241378E+04    0.49700E-05   -0.23165E-05  3298   0.542E-03    0.896E-03
RMM:   5    -0.116442241328E+04    0.49880E-06   -0.42609E-06  2582   0.269E-03    0.423E-03
RMM:   6    -0.116442241328E+04    0.88767E-09   -0.60170E-07  1419   0.191E-03    0.242E-03
RMM:   7    -0.116442241327E+04    0.81782E-08   -0.76730E-08   812   0.185E-03    0.126E-03
RMM:   8    -0.116442241327E+04    0.39727E-08   -0.14758E-08   703   0.185E-03
   3 F= -.11644224E+04 E0= -.11644150E+04  d E =-.212977E-03  mag=     3.9762
       N       E                     dE             d eps       ncg     rms          rms(c)
DAV:   1    -0.116442240695E+04    0.63229E-05   -0.12342E-01  6016   0.398E-01    0.717E-02
RMM:   2    -0.116442267559E+04   -0.26864E-03   -0.29953E-03  6058   0.650E-02    0.510E-02
RMM:   3    -0.116442266333E+04    0.12255E-04   -0.97266E-05  3509   0.157E-02    0.338E-02
RMM:   4    -0.116442265590E+04    0.74325E-05   -0.45601E-05  3430   0.749E-03    0.128E-02
RMM:   5    -0.116442265572E+04    0.17564E-06   -0.10311E-05  3186   0.374E-03    0.438E-03
RMM:   6    -0.116442265601E+04   -0.28379E-06   -0.31307E-06  2213   0.244E-03    0.298E-03
RMM:   7    -0.116442265612E+04   -0.11506E-06   -0.10712E-06  1294   0.205E-03    0.173E-03
RMM:   8    -0.116442265617E+04   -0.48196E-07   -0.30717E-07   935   0.196E-03
   4 F= -.11644227E+04 E0= -.11644152E+04  d E =-.242902E-03  mag=     3.9762
       N       E                     dE             d eps       ncg     rms          rms(c)
DAV:   1    -0.116442258718E+04    0.68946E-04   -0.11989E-01  6016   0.392E-01    0.688E-02
RMM:   2    -0.116442284982E+04   -0.26264E-03   -0.29242E-03  6050   0.644E-02    0.485E-02
RMM:   3    -0.116442283806E+04    0.11757E-04   -0.94229E-05  3520   0.154E-02    0.318E-02
RMM:   4    -0.116442283132E+04    0.67464E-05   -0.42782E-05  3430   0.725E-03    0.141E-02
RMM:   5    -0.116442283070E+04    0.61565E-06   -0.10457E-05  3129   0.373E-03    0.422E-03
RMM:   6    -0.116442283099E+04   -0.28938E-06   -0.31083E-06  2210   0.245E-03    0.287E-03
RMM:   7    -0.116442283110E+04   -0.10589E-06   -0.10945E-06  1355   0.207E-03    0.170E-03
RMM:   8    -0.116442283114E+04   -0.43292E-07   -0.36235E-07   945   0.199E-03
   5 F= -.11644228E+04 E0= -.11644154E+04  d E =-.174970E-03  mag=     3.9762
       N       E                     dE             d eps       ncg     rms          rms(c)
DAV:   1    -0.116442271305E+04    0.11805E-03   -0.99966E-02  6016   0.358E-01    0.611E-02
RMM:   2    -0.116442293356E+04   -0.22051E-03   -0.24351E-03  6038   0.584E-02    0.419E-02
RMM:   3    -0.116442292426E+04    0.92985E-05   -0.78446E-05  3485   0.141E-02    0.273E-02
RMM:   4    -0.116442291909E+04    0.51761E-05   -0.34407E-05  3386   0.653E-03    0.120E-02
RMM:   5    -0.116442291881E+04    0.27323E-06   -0.78584E-06  2846   0.335E-03    0.379E-03
RMM:   6    -0.116442291905E+04   -0.23397E-06   -0.23058E-06  1900   0.230E-03    0.253E-03
RMM:   7    -0.116442291914E+04   -0.95286E-07   -0.77323E-07  1130   0.203E-03    0.141E-03
RMM:   8    -0.116442291918E+04   -0.34517E-07   -0.18018E-07   849   0.196E-03
   6 F= -.11644229E+04 E0= -.11644155E+04  d E =-.880355E-04  mag=     3.9762
       N       E                     dE             d eps       ncg     rms          rms(c)
DAV:   1    -0.116442278527E+04    0.13387E-03   -0.82780E-02  6080   0.326E-01    0.547E-02
RMM:   2    -0.116442297126E+04   -0.18599E-03   -0.20407E-03  6031   0.537E-02    0.357E-02
RMM:   3    -0.116442296390E+04    0.73549E-05   -0.65130E-05  3438   0.129E-02    0.232E-02
RMM:   4    -0.116442295987E+04    0.40281E-05   -0.27706E-05  3332   0.594E-03    0.101E-02
RMM:   5    -0.116442295992E+04   -0.42011E-07   -0.63579E-06  2695   0.307E-03    0.338E-03
RMM:   6    -0.116442296011E+04   -0.19734E-06   -0.18704E-06  1684   0.220E-03    0.208E-03
RMM:   7    -0.116442296017E+04   -0.62108E-07   -0.49291E-07   999   0.197E-03    0.120E-03
RMM:   8    -0.116442296020E+04   -0.24214E-07   -0.93830E-08   773   0.193E-03
   7 F= -.11644230E+04 E0= -.11644155E+04  d E =-.410228E-04  mag=     3.9763
