       N       E                     dE             d eps       ncg     rms          rms(c)
DAV:   1    -0.116319322743E+04   -0.11632E+04   -0.10753E-04  4792   0.226E-02    0.332E-02
RMM:   2    -0.116319340398E+04   -0.17655E-03   -0.96180E-05  3500   0.131E-02    0.419E-02
RMM:   3    -0.116319343586E+04   -0.31884E-04   -0.22425E-05  2769   0.501E-03    0.383E-02
RMM:   4    -0.116319342287E+04    0.12993E-04   -0.58018E-06  2377   0.366E-03    0.386E-02
RMM:   5    -0.116319343366E+04   -0.10793E-04   -0.23156E-06  1591   0.223E-03    0.390E-02
RMM:   6    -0.116319350083E+04   -0.67170E-04   -0.91987E-06  2270   0.412E-03    0.406E-02
RMM:   7    -0.116319384260E+04   -0.34176E-03   -0.20109E-04  3504   0.165E-02    0.504E-02
RMM:   8    -0.116319423295E+04   -0.39035E-03   -0.39147E-04  3732   0.204E-02    0.615E-02
RMM:   9    -0.116319461798E+04   -0.38503E-03   -0.47099E-04  3720   0.211E-02    0.599E-02
RMM:  10    -0.116319505529E+04   -0.43730E-03   -0.69053E-04  3992   0.255E-02    0.543E-02
RMM:  11    -0.116319575632E+04   -0.70103E-03   -0.26894E-03  4848   0.546E-02    0.397E-02
RMM:  12    -0.116319607567E+04   -0.31935E-03   -0.61693E-04  4146   0.231E-02    0.452E-02
RMM:  13    -0.116319641733E+04   -0.34166E-03   -0.83710E-04  4234   0.292E-02    0.407E-02
RMM:  14    -0.116319645575E+04   -0.38416E-04   -0.10352E-04  3481   0.113E-02
   1 F= -.11631965E+04 E0= -.11631946E+04  d E =-.116320E+04  mag=     5.9699
       N       E                     dE             d eps       ncg     rms          rms(c)
DAV:   1    -0.116316889386E+04    0.27523E-01   -0.86134E+00  6384   0.299E+00    0.178E+00
RMM:   2    -0.116321836343E+04   -0.49470E-01   -0.20843E-01  6146   0.583E-01    0.109E+00
RMM:   3    -0.116322527097E+04   -0.69075E-02   -0.11705E-02  6153   0.192E-01    0.482E-01
RMM:   4    -0.116322515770E+04    0.11326E-03   -0.42190E-03  6539   0.754E-02    0.247E-01
RMM:   5    -0.116322530247E+04   -0.14477E-03   -0.11230E-03  5517   0.384E-02    0.113E-01
RMM:   6    -0.116322541967E+04   -0.11720E-03   -0.16133E-04  4103   0.174E-02    0.577E-02
RMM:   7    -0.116322559160E+04   -0.17194E-03   -0.10853E-04  3816   0.130E-02    0.553E-02
RMM:   8    -0.116322572719E+04   -0.13559E-03   -0.73439E-05  3659   0.991E-03    0.456E-02
RMM:   9    -0.116322598858E+04   -0.26138E-03   -0.13558E-04  3693   0.138E-02    0.446E-02
RMM:  10    -0.116322619312E+04   -0.20455E-03   -0.11954E-04  3607   0.105E-02    0.388E-02
RMM:  11    -0.116322673641E+04   -0.54329E-03   -0.64193E-04  4096   0.267E-02    0.371E-02
RMM:  12    -0.116322752206E+04   -0.78565E-03   -0.25657E-03  4848   0.541E-02    0.316E-02
RMM:  13    -0.116322803950E+04   -0.51744E-03   -0.16018E-03  4445   0.395E-02    0.271E-02
RMM:  14    -0.116322832042E+04   -0.28092E-03   -0.74130E-04  4168   0.244E-02    0.244E-02
RMM:  15    -0.116322852583E+04   -0.20540E-03   -0.47646E-04  3878   0.204E-02    0.220E-02
RMM:  16    -0.116322875913E+04   -0.23330E-03   -0.90263E-04  4154   0.295E-02    0.184E-02
RMM:  17    -0.116322893937E+04   -0.18024E-03   -0.12065E-03  4312   0.341E-02    0.159E-02
RMM:  18    -0.116322905103E+04   -0.11166E-03   -0.32340E-04  3827   0.162E-02    0.113E-02
RMM:  19    -0.116322909881E+04   -0.47782E-04   -0.37028E-04  3732   0.195E-02
   2 F= -.11632291E+04 E0= -.11632271E+04  d E =-.326431E-01  mag=     5.9672
       N       E                     dE             d eps       ncg     rms          rms(c)
DAV:   1    -0.116322222766E+04    0.68234E-02   -0.27951E+00  6392   0.169E+00    0.105E+00
RMM:   2    -0.116323850933E+04   -0.16282E-01   -0.68119E-02  6153   0.331E-01    0.636E-01
RMM:   3    -0.116324081142E+04   -0.23021E-02   -0.39313E-03  6117   0.112E-01    0.273E-01
RMM:   4    -0.116324067871E+04    0.13270E-03   -0.15239E-03  5814   0.459E-02    0.142E-01
RMM:   5    -0.116324067636E+04    0.23594E-05   -0.37476E-04  4910   0.261E-02    0.547E-02
RMM:   6    -0.116324069304E+04   -0.16683E-04   -0.62003E-05  3697   0.113E-02    0.316E-02
RMM:   7    -0.116324072079E+04   -0.27752E-04   -0.36341E-05  3588   0.810E-03    0.287E-02
RMM:   8    -0.116324074432E+04   -0.23534E-04   -0.24165E-05  3517   0.696E-03
   3 F= -.11632407E+04 E0= -.11632388E+04  d E =-.116455E-01  mag=     5.9688
       N       E                     dE             d eps       ncg     rms          rms(c)
DAV:   1    -0.116321971982E+04    0.21001E-01   -0.39971E+00  6328   0.196E+00    0.133E+00
RMM:   2    -0.116324624649E+04   -0.26527E-01   -0.83851E-02  6184   0.359E-01    0.706E-01
RMM:   3    -0.116325072825E+04   -0.44818E-02   -0.56196E-03  6216   0.133E-01    0.272E-01
RMM:   4    -0.116325085325E+04   -0.12501E-03   -0.15041E-03  6087   0.453E-02    0.143E-01
RMM:   5    -0.116325093939E+04   -0.86131E-04   -0.32013E-04  4365   0.230E-02    0.685E-02
RMM:   6    -0.116325099712E+04   -0.57736E-04   -0.91164E-05  3678   0.133E-02    0.306E-02
RMM:   7    -0.116325104934E+04   -0.52217E-04   -0.49354E-05  3593   0.101E-02    0.266E-02
RMM:   8    -0.116325110182E+04   -0.52484E-04   -0.38001E-05  3522   0.791E-03
   4 F= -.11632511E+04 E0= -.11632491E+04  d E =-.103575E-01  mag=     5.9680
       N       E                     dE             d eps       ncg     rms          rms(c)
DAV:   1    -0.116325019423E+04    0.85510E-03   -0.10896E+00  6336   0.115E+00    0.494E-01
RMM:   2    -0.116325472845E+04   -0.45342E-02   -0.26648E-02  6389   0.204E-01    0.284E-01
RMM:   3    -0.116325521266E+04   -0.48421E-03   -0.14298E-03  6104   0.668E-02    0.129E-01
RMM:   4    -0.116325521036E+04    0.23027E-05   -0.36465E-04  4592   0.249E-02    0.642E-02
RMM:   5    -0.116325526198E+04   -0.51625E-04   -0.15789E-04  3796   0.166E-02    0.301E-02
RMM:   6    -0.116325528800E+04   -0.26014E-04   -0.45869E-05  3533   0.105E-02    0.204E-02
RMM:   7    -0.116325531555E+04   -0.27551E-04   -0.28165E-05  3446   0.728E-03    0.197E-02
RMM:   8    -0.116325535173E+04   -0.36178E-04   -0.24169E-05  3400   0.662E-03
   5 F= -.11632554E+04 E0= -.11632534E+04  d E =-.424990E-02  mag=     5.9686
       N       E                     dE             d eps       ncg     rms          rms(c)
DAV:   1    -0.116325529375E+04    0.21795E-04   -0.10480E+00  6344   0.117E+00    0.365E-01
RMM:   2    -0.116325850618E+04   -0.32124E-02   -0.26363E-02  6449   0.201E-01    0.212E-01
RMM:   3    -0.116325868078E+04   -0.17460E-03   -0.12733E-03  6037   0.629E-02    0.114E-01
RMM:   4    -0.116325864903E+04    0.31748E-04   -0.30473E-04  4343   0.227E-02    0.549E-02
RMM:   5    -0.116325867967E+04   -0.30638E-04   -0.12692E-04  3695   0.153E-02    0.233E-02
RMM:   6    -0.116325869548E+04   -0.15811E-04   -0.39961E-05  3516   0.101E-02    0.166E-02
RMM:   7    -0.116325871140E+04   -0.15924E-04   -0.24722E-05  3416   0.674E-03    0.149E-02
RMM:   8    -0.116325873601E+04   -0.24602E-04   -0.20259E-05  3376   0.651E-03
   6 F= -.11632587E+04 E0= -.11632568E+04  d E =-.338428E-02  mag=     5.9683
       N       E                     dE             d eps       ncg     rms          rms(c)
DAV:   1    -0.116325826539E+04    0.44601E-03   -0.11172E+00  6336   0.122E+00    0.331E-01
RMM:   2    -0.116326136567E+04   -0.31003E-02   -0.28363E-02  6397   0.208E-01    0.201E-01
RMM:   3    -0.116326147797E+04   -0.11230E-03   -0.13941E-03  6088   0.670E-02    0.113E-01
RMM:   4    -0.116326143570E+04    0.42262E-04   -0.31447E-04  4329   0.229E-02    0.567E-02
RMM:   5    -0.116326145247E+04   -0.16770E-04   -0.12058E-04  3653   0.154E-02    0.253E-02
RMM:   6    -0.116326146481E+04   -0.12340E-04   -0.40551E-05  3515   0.103E-02    0.141E-02
RMM:   7    -0.116326147660E+04   -0.11784E-04   -0.24617E-05  3424   0.711E-03    0.127E-02
RMM:   8    -0.116326149235E+04   -0.15757E-04   -0.19267E-05  3363   0.643E-03
   7 F= -.11632615E+04 E0= -.11632596E+04  d E =-.275635E-02  mag=     5.9684
       N       E                     dE             d eps       ncg     rms          rms(c)
DAV:   1    -0.116326070349E+04    0.77311E-03   -0.12339E+00  6296   0.129E+00    0.294E-01
RMM:   2    -0.116326377258E+04   -0.30691E-02   -0.31049E-02  6372   0.215E-01    0.179E-01
RMM:   3    -0.116326380751E+04   -0.34932E-04   -0.14920E-03  6105   0.697E-02    0.109E-01
RMM:   4    -0.116326375438E+04    0.53131E-04   -0.33995E-04  4457   0.230E-02    0.565E-02
RMM:   5    -0.116326376267E+04   -0.82934E-05   -0.11876E-04  3696   0.155E-02    0.211E-02
RMM:   6    -0.116326377148E+04   -0.88132E-05   -0.39892E-05  3508   0.102E-02    0.124E-02
RMM:   7    -0.116326377932E+04   -0.78402E-05   -0.24789E-05  3414   0.709E-03    0.104E-02
RMM:   8    -0.116326378941E+04   -0.10087E-04   -0.18652E-05  3357   0.628E-03
   8 F= -.11632638E+04 E0= -.11632619E+04  d E =-.229706E-02  mag=     5.9685
       N       E                     dE             d eps       ncg     rms          rms(c)
DAV:   1    -0.116326360724E+04    0.17208E-03   -0.77736E-01  6368   0.102E+00    0.196E-01
RMM:   2    -0.116326537896E+04   -0.17717E-02   -0.19562E-02  6339   0.170E-01    0.129E-01
RMM:   3    -0.116326535255E+04    0.26407E-04   -0.91173E-04  5602   0.545E-02    0.823E-02
RMM:   4    -0.116326532096E+04    0.31592E-04   -0.22535E-04  4006   0.188E-02    0.483E-02
RMM:   5    -0.116326532009E+04    0.87528E-06   -0.79247E-05  3629   0.129E-02    0.141E-02
RMM:   6    -0.116326532578E+04   -0.56922E-05   -0.29004E-05  3462   0.851E-03    0.983E-03
RMM:   7    -0.116326532992E+04   -0.41403E-05   -0.17937E-05  3351   0.587E-03    0.782E-03
RMM:   8    -0.116326533475E+04   -0.48341E-05   -0.12134E-05  3244   0.535E-03
   9 F= -.11632653E+04 E0= -.11632634E+04  d E =-.154534E-02  mag=     5.9686
       N       E                     dE             d eps       ncg     rms          rms(c)
DAV:   1    -0.116326503064E+04    0.29928E-03   -0.73011E-01  6352   0.986E-01    0.184E-01
RMM:   2    -0.116326666797E+04   -0.16373E-02   -0.18001E-02  6294   0.163E-01    0.118E-01
RMM:   3    -0.116326664346E+04    0.24503E-04   -0.84276E-04  5521   0.530E-02    0.753E-02
RMM:   4    -0.116326661132E+04    0.32148E-04   -0.19908E-04  3839   0.180E-02    0.423E-02
RMM:   5    -0.116326661081E+04    0.50574E-06   -0.68148E-05  3608   0.121E-02    0.133E-02
RMM:   6    -0.116326661515E+04   -0.43439E-05   -0.26362E-05  3457   0.801E-03    0.872E-03
RMM:   7    -0.116326661800E+04   -0.28439E-05   -0.15927E-05  3337   0.567E-03    0.696E-03
RMM:   8    -0.116326662065E+04   -0.26540E-05   -0.10466E-05  3158   0.503E-03
  10 F= -.11632666E+04 E0= -.11632647E+04  d E =-.128590E-02  mag=     5.9687
       N       E                     dE             d eps       ncg     rms          rms(c)
DAV:   1    -0.116326655758E+04    0.60413E-04   -0.44345E-01  6368   0.768E-01    0.140E-01
RMM:   2    -0.116326755499E+04   -0.99740E-03   -0.10947E-02  6271   0.127E-01    0.892E-02
RMM:   3    -0.116326753747E+04    0.17516E-04   -0.49146E-04  4657   0.415E-02    0.575E-02
RMM:   4    -0.116326751931E+04    0.18158E-04   -0.12403E-04  3619   0.144E-02    0.329E-02
RMM:   5    -0.116326751972E+04   -0.40785E-06   -0.44179E-05  3499   0.980E-03    0.112E-02
RMM:   6    -0.116326752248E+04   -0.27596E-05   -0.18312E-05  3400   0.646E-03    0.735E-03
RMM:   7    -0.116326752410E+04   -0.16217E-05   -0.10646E-05  3213   0.483E-03    0.545E-03
RMM:   8    -0.116326752552E+04   -0.14146E-05   -0.69220E-06  2849   0.408E-03
  11 F= -.11632675E+04 E0= -.11632656E+04  d E =-.904864E-03  mag=     5.9687
       N       E                     dE             d eps       ncg     rms          rms(c)
DAV:   1    -0.116326749183E+04    0.32272E-04   -0.34949E-01  6288   0.678E-01    0.120E-01
RMM:   2    -0.116326826860E+04   -0.77677E-03   -0.85461E-03  6208   0.112E-01    0.797E-02
RMM:   3    -0.116326825514E+04    0.13463E-04   -0.39342E-04  4445   0.385E-02    0.512E-02
RMM:   4    -0.116326824378E+04    0.11352E-04   -0.99789E-05  3573   0.129E-02    0.339E-02
RMM:   5    -0.116326824045E+04    0.33307E-05   -0.38424E-05  3477   0.892E-03    0.858E-03
RMM:   6    -0.116326824260E+04   -0.21475E-05   -0.14823E-05  3357   0.579E-03    0.594E-03
RMM:   7    -0.116326824368E+04   -0.10831E-05   -0.84299E-06  3061   0.426E-03    0.430E-03
RMM:   8    -0.116326824454E+04   -0.85602E-06   -0.52176E-06  2622   0.362E-03
  12 F= -.11632682E+04 E0= -.11632663E+04  d E =-.719023E-03  mag=     5.9686
