       N       E                     dE             d eps       ncg     rms          rms(c)
DAV:   1    -0.115962698242E+04   -0.11596E+04   -0.12684E-04 11088   0.221E-02    0.280E-02
RMM:   2    -0.115962703172E+04   -0.49300E-04   -0.45217E-05  6316   0.952E-03    0.347E-02
RMM:   3    -0.115962704852E+04   -0.16803E-04   -0.13242E-05  5067   0.407E-03    0.215E-02
RMM:   4    -0.115962706763E+04   -0.19101E-04   -0.64858E-06  4147   0.342E-03    0.217E-02
RMM:   5    -0.115962704837E+04    0.19261E-04   -0.29671E-06  3710   0.302E-03    0.224E-02
RMM:   6    -0.115962706300E+04   -0.14630E-04   -0.17156E-06  3007   0.238E-03    0.216E-02
RMM:   7    -0.115962718586E+04   -0.12287E-03   -0.85533E-05  5883   0.112E-02    0.197E-02
RMM:   8    -0.115962733684E+04   -0.15098E-03   -0.18500E-04  6586   0.137E-02    0.198E-02
RMM:   9    -0.115962743508E+04   -0.98239E-04   -0.11614E-04  5707   0.940E-03
   1 F= -.11596274E+04 E0= -.11596274E+04  d E =-.115963E+04  mag=    10.0000
       N       E                     dE             d eps       ncg     rms          rms(c)
DAV:   1    -0.115962313202E+04    0.42048E-02   -0.15124E+00 12768   0.128E+00    0.722E-01
RMM:   2    -0.115963126802E+04   -0.81360E-02   -0.39190E-02 12350   0.255E-01    0.461E-01
RMM:   3    -0.115963223475E+04   -0.96672E-03   -0.24222E-03 12283   0.852E-02    0.221E-01
RMM:   4    -0.115963230475E+04   -0.70007E-04   -0.85599E-04 10908   0.358E-02    0.119E-01
RMM:   5    -0.115963253208E+04   -0.22732E-03   -0.29336E-04  8777   0.230E-02    0.708E-02
RMM:   6    -0.115963264755E+04   -0.11547E-03   -0.86357E-05  7319   0.123E-02    0.520E-02
RMM:   7    -0.115963279479E+04   -0.14724E-03   -0.10060E-04  7182   0.966E-03    0.485E-02
RMM:   8    -0.115963295266E+04   -0.15788E-03   -0.69923E-05  6917   0.822E-03    0.478E-02
RMM:   9    -0.115963315865E+04   -0.20598E-03   -0.90129E-05  7022   0.898E-03    0.456E-02
RMM:  10    -0.115963347429E+04   -0.31564E-03   -0.18406E-04  7325   0.132E-02    0.459E-02
RMM:  11    -0.115963395170E+04   -0.47741E-03   -0.45548E-04  8140   0.210E-02    0.433E-02
RMM:  12    -0.115963549707E+04   -0.15454E-02   -0.49269E-03 10595   0.784E-02    0.424E-02
RMM:  13    -0.115963583506E+04   -0.33799E-03   -0.89785E-04  9110   0.270E-02    0.483E-02
RMM:  14    -0.115963562431E+04    0.21075E-03   -0.79336E-05  6898   0.139E-02    0.462E-02
RMM:  15    -0.115963562985E+04   -0.55442E-05   -0.18752E-05  5695   0.467E-03
   2 F= -.11596356E+04 E0= -.11596356E+04  d E =-.819478E-02  mag=    10.0000
       N       E                     dE             d eps       ncg     rms          rms(c)
DAV:   1    -0.115963537652E+04    0.24779E-03   -0.45443E-01 12728   0.684E-01    0.420E-01
RMM:   2    -0.115963819442E+04   -0.28179E-02   -0.10774E-02 12254   0.133E-01    0.247E-01
RMM:   3    -0.115963864629E+04   -0.45188E-03   -0.64415E-04 10617   0.454E-02    0.116E-01
RMM:   4    -0.115963888754E+04   -0.24125E-03   -0.27551E-04  8206   0.219E-02    0.750E-02
RMM:   5    -0.115963919997E+04   -0.31243E-03   -0.25658E-04  7860   0.169E-02    0.637E-02
RMM:   6    -0.115963934150E+04   -0.14153E-03   -0.85033E-05  7099   0.107E-02    0.544E-02
RMM:   7    -0.115963950797E+04   -0.16647E-03   -0.71012E-05  6769   0.845E-03    0.519E-02
RMM:   8    -0.115963956836E+04   -0.60388E-04   -0.24113E-05  6091   0.506E-03
   3 F= -.11596396E+04 E0= -.11596396E+04  d E =-.393851E-02  mag=    10.0000
       N       E                     dE             d eps       ncg     rms          rms(c)
DAV:   1    -0.115963314259E+04    0.63654E-02   -0.13980E+00 12808   0.115E+00    0.780E-01
RMM:   2    -0.115964280532E+04   -0.96627E-02   -0.28392E-02 12623   0.210E-01    0.407E-01
RMM:   3    -0.115964435099E+04   -0.15457E-02   -0.18320E-03 12102   0.717E-02    0.161E-01
RMM:   4    -0.115964484818E+04   -0.49719E-03   -0.62678E-04  9499   0.315E-02    0.985E-02
RMM:   5    -0.115964541994E+04   -0.57176E-03   -0.45943E-04  8331   0.242E-02    0.754E-02
RMM:   6    -0.115964574985E+04   -0.32990E-03   -0.20628E-04  7585   0.154E-02    0.722E-02
RMM:   7    -0.115964605564E+04   -0.30579E-03   -0.13713E-04  7321   0.118E-02    0.695E-02
RMM:   8    -0.115964633890E+04   -0.28326E-03   -0.10857E-04  7178   0.997E-03    0.710E-02
RMM:   9    -0.115964650681E+04   -0.16791E-03   -0.54132E-05  6549   0.707E-03    0.688E-02
RMM:  10    -0.115964714236E+04   -0.63556E-03   -0.30020E-04  7745   0.193E-02    0.753E-02
RMM:  11    -0.115964832337E+04   -0.11810E-02   -0.11734E-03  9121   0.365E-02    0.761E-02
RMM:  12    -0.115965106250E+04   -0.27391E-02   -0.69669E-03 10757   0.946E-02    0.788E-02
RMM:  13    -0.115965068339E+04    0.37911E-03   -0.49145E-04  8491   0.181E-02    0.818E-02
RMM:  14    -0.115965223963E+04   -0.15562E-02   -0.19754E-03  9813   0.492E-02    0.813E-02
RMM:  15    -0.115965294490E+04   -0.70527E-03   -0.95573E-04  8860   0.297E-02    0.841E-02
RMM:  16    -0.115964909246E+04    0.38524E-02   -0.77657E-03 10767   0.109E-01    0.104E-01
RMM:  17    -0.115965092863E+04   -0.18362E-02   -0.75744E-04  8858   0.343E-02    0.897E-02
RMM:  18    -0.115965539112E+04   -0.44625E-02   -0.24330E-02 11439   0.183E-01    0.873E-02
RMM:  19    -0.115965449198E+04    0.89915E-03   -0.15597E-03  9759   0.474E-02    0.710E-02
RMM:  20    -0.115965699532E+04   -0.25033E-02   -0.58761E-03 10665   0.932E-02    0.701E-02
RMM:  21    -0.115965832804E+04   -0.13327E-02   -0.48716E-03 10544   0.676E-02    0.751E-02
RMM:  22    -0.115965879484E+04   -0.46679E-03   -0.10133E-03  9051   0.239E-02    0.722E-02
RMM:  23    -0.115965943006E+04   -0.63522E-03   -0.84539E-04  8764   0.287E-02    0.757E-02
RMM:  24    -0.115965965546E+04   -0.22540E-03   -0.22357E-04  7254   0.135E-02    0.753E-02
RMM:  25    -0.115965947133E+04    0.18412E-03   -0.59746E-05  6597   0.110E-02    0.744E-02
RMM:  26    -0.115965953266E+04   -0.61332E-04   -0.35931E-05  6165   0.733E-03
   4 F= -.11596595E+04 E0= -.11596595E+04  d E =-.199643E-01  mag=    10.0000
       N       E                     dE             d eps       ncg     rms          rms(c)
DAV:   1    -0.115964708295E+04    0.12388E-01   -0.74925E-01 12624   0.823E-01    0.586E-01
RMM:   2    -0.115965243459E+04   -0.53516E-02   -0.15664E-02 12331   0.155E-01    0.305E-01
RMM:   3    -0.115965328367E+04   -0.84908E-03   -0.10534E-03 10948   0.541E-02    0.125E-01
RMM:   4    -0.115965347266E+04   -0.18899E-03   -0.30953E-04  8436   0.220E-02    0.676E-02
RMM:   5    -0.115965368477E+04   -0.21211E-03   -0.20607E-04  7634   0.163E-02    0.437E-02
RMM:   6    -0.115965378421E+04   -0.99441E-04   -0.70757E-05  7014   0.915E-03    0.398E-02
RMM:   7    -0.115965401001E+04   -0.22580E-03   -0.13629E-04  7067   0.123E-02    0.384E-02
RMM:   8    -0.115965431280E+04   -0.30279E-03   -0.26053E-04  7610   0.158E-02    0.375E-02
RMM:   9    -0.115965440660E+04   -0.93796E-04   -0.76383E-05  6242   0.795E-03
   5 F= -.11596544E+04 E0= -.11596544E+04  d E =0.512607E-02  mag=    10.0000
       N       E                     dE             d eps       ncg     rms          rms(c)
DAV:   1    -0.115963104530E+04    0.23268E-01   -0.49618E+00 12688   0.214E+00    0.149E+00
RMM:   2    -0.115966535672E+04   -0.34311E-01   -0.10032E-01 12565   0.397E-01    0.793E-01
RMM:   3    -0.115967055263E+04   -0.51959E-02   -0.63902E-03 12627   0.134E-01    0.286E-01
RMM:   4    -0.115967095549E+04   -0.40286E-03   -0.16470E-03 11862   0.498E-02    0.155E-01
RMM:   5    -0.115967147996E+04   -0.52447E-03   -0.75648E-04  9772   0.313E-02    0.901E-02
RMM:   6    -0.115967178421E+04   -0.30426E-03   -0.22154E-04  7668   0.185E-02    0.664E-02
RMM:   7    -0.115967207925E+04   -0.29504E-03   -0.16256E-04  7498   0.132E-02    0.632E-02
RMM:   8    -0.115967258561E+04   -0.50636E-03   -0.28976E-04  7705   0.181E-02    0.614E-02
RMM:   9    -0.115967305393E+04   -0.46832E-03   -0.32114E-04  7830   0.166E-02    0.585E-02
RMM:  10    -0.115967414431E+04   -0.10904E-02   -0.13093E-03  9026   0.380E-02    0.539E-02
RMM:  11    -0.115967676436E+04   -0.26201E-02   -0.12156E-02 10992   0.123E-01    0.519E-02
RMM:  12    -0.115967722551E+04   -0.46115E-03   -0.16392E-03  9543   0.318E-02    0.494E-02
RMM:  13    -0.115967738229E+04   -0.15679E-03   -0.18772E-04  7589   0.138E-02    0.495E-02
RMM:  14    -0.115967744106E+04   -0.58768E-04   -0.71721E-05  6642   0.789E-03
   6 F= -.11596774E+04 E0= -.11596774E+04  d E =-.230345E-01  mag=    10.0000
       N       E                     dE             d eps       ncg     rms          rms(c)
DAV:   1    -0.115967788118E+04   -0.49889E-03   -0.38336E-01 12568   0.621E-01    0.387E-01
RMM:   2    -0.115968052232E+04   -0.26411E-02   -0.89298E-03 12203   0.120E-01    0.209E-01
RMM:   3    -0.115968101253E+04   -0.49021E-03   -0.56012E-04  9685   0.431E-02    0.958E-02
RMM:   4    -0.115968131854E+04   -0.30601E-03   -0.30223E-04  7880   0.219E-02    0.713E-02
RMM:   5    -0.115968154140E+04   -0.22286E-03   -0.15916E-04  7277   0.129E-02    0.526E-02
RMM:   6    -0.115968174477E+04   -0.20336E-03   -0.10410E-04  7085   0.107E-02    0.496E-02
RMM:   7    -0.115968194196E+04   -0.19719E-03   -0.93485E-05  6639   0.865E-03    0.468E-02
RMM:   8    -0.115968243875E+04   -0.49679E-03   -0.39270E-04  7801   0.202E-02    0.482E-02
RMM:   9    -0.115968341539E+04   -0.97664E-03   -0.19315E-03  9486   0.454E-02    0.405E-02
RMM:  10    -0.115968421576E+04   -0.80037E-03   -0.21304E-03  9439   0.469E-02    0.336E-02
RMM:  11    -0.115968506316E+04   -0.84740E-03   -0.34319E-03  9877   0.595E-02    0.291E-02
RMM:  12    -0.115968554739E+04   -0.48423E-03   -0.20171E-03  9347   0.397E-02    0.280E-02
RMM:  13    -0.115968550368E+04    0.43705E-04   -0.12915E-04  7296   0.113E-02
   7 F= -.11596855E+04 E0= -.11596855E+04  d E =-.806262E-02  mag=    10.0000
       N       E                     dE             d eps       ncg     rms          rms(c)
DAV:   1    -0.115968615405E+04   -0.60666E-03   -0.15193E-01 12776   0.392E-01    0.228E-01
RMM:   2    -0.115968709641E+04   -0.94236E-03   -0.35656E-03 12159   0.738E-02    0.122E-01
RMM:   3    -0.115968725123E+04   -0.15482E-03   -0.21181E-04  7656   0.272E-02    0.568E-02
RMM:   4    -0.115968734568E+04   -0.94447E-04   -0.10687E-04  7166   0.125E-02    0.348E-02
RMM:   5    -0.115968743786E+04   -0.92174E-04   -0.68129E-05  6838   0.792E-03    0.280E-02
RMM:   6    -0.115968749823E+04   -0.60375E-04   -0.33586E-05  6298   0.580E-03    0.264E-02
RMM:   7    -0.115968756998E+04   -0.71746E-04   -0.34989E-05  5872   0.595E-03    0.254E-02
RMM:   8    -0.115968782521E+04   -0.25524E-03   -0.33986E-04  7575   0.190E-02    0.231E-02
RMM:   9    -0.115968800315E+04   -0.17794E-03   -0.31065E-04  7013   0.160E-02    0.205E-02
RMM:  10    -0.115968819601E+04   -0.19286E-03   -0.39993E-04  7592   0.184E-02    0.183E-02
RMM:  11    -0.115968854872E+04   -0.35271E-03   -0.21614E-03  9262   0.464E-02    0.156E-02
RMM:  12    -0.115968867778E+04   -0.12906E-03   -0.66758E-04  7872   0.209E-02    0.131E-02
RMM:  13    -0.115968871489E+04   -0.37108E-04   -0.12535E-04  6585   0.997E-03
   8 F= -.11596887E+04 E0= -.11596887E+04  d E =-.321121E-02  mag=    10.0000
       N       E                     dE             d eps       ncg     rms          rms(c)
DAV:   1    -0.115969083125E+04   -0.21535E-02   -0.21233E-01 12480   0.442E-01    0.311E-01
RMM:   2    -0.115969233251E+04   -0.15013E-02   -0.44999E-03 12209   0.834E-02    0.162E-01
RMM:   3    -0.115969255945E+04   -0.22694E-03   -0.25346E-04  7976   0.296E-02    0.642E-02
RMM:   4    -0.115969258388E+04   -0.24431E-04   -0.84940E-05  7179   0.118E-02    0.335E-02
RMM:   5    -0.115969260204E+04   -0.18154E-04   -0.28575E-05  6751   0.699E-03    0.206E-02
RMM:   6    -0.115969261307E+04   -0.11037E-04   -0.13938E-05  5966   0.491E-03    0.130E-02
RMM:   7    -0.115969262203E+04   -0.89589E-05   -0.71537E-06  4590   0.333E-03    0.113E-02
RMM:   8    -0.115969263795E+04   -0.15917E-04   -0.98845E-06  4839   0.389E-03
   9 F= -.11596926E+04 E0= -.11596926E+04  d E =-.392306E-02  mag=    10.0000
       N       E                     dE             d eps       ncg     rms          rms(c)
DAV:   1    -0.115968397388E+04    0.86482E-02   -0.10931E+00 12544   0.103E+00    0.582E-01
RMM:   2    -0.115968965017E+04   -0.56763E-02   -0.21964E-02 12460   0.179E-01    0.303E-01
RMM:   3    -0.115969038420E+04   -0.73403E-03   -0.14896E-03 11545   0.662E-02    0.124E-01
RMM:   4    -0.115969040486E+04   -0.20657E-04   -0.37459E-04  8833   0.224E-02    0.566E-02
RMM:   5    -0.115969045368E+04   -0.48816E-04   -0.11570E-04  7307   0.144E-02    0.270E-02
RMM:   6    -0.115969047924E+04   -0.25567E-04   -0.36047E-05  6956   0.839E-03    0.214E-02
RMM:   7    -0.115969050832E+04   -0.29077E-04   -0.24060E-05  6724   0.642E-03    0.190E-02
RMM:   8    -0.115969056886E+04   -0.60533E-04   -0.49694E-05  6765   0.803E-03
  10 F= -.11596906E+04 E0= -.11596906E+04  d E =0.206909E-02  mag=    10.0000
       N       E                     dE             d eps       ncg     rms          rms(c)
DAV:   1    -0.115969201515E+04   -0.15068E-02   -0.50492E-01 12624   0.710E-01    0.414E-01
RMM:   2    -0.115969492753E+04   -0.29124E-02   -0.11024E-02 12348   0.129E-01    0.219E-01
RMM:   3    -0.115969534975E+04   -0.42222E-03   -0.69636E-04 10138   0.467E-02    0.926E-02
RMM:   4    -0.115969542508E+04   -0.75324E-04   -0.19881E-04  7616   0.177E-02    0.513E-02
RMM:   5    -0.115969549140E+04   -0.66320E-04   -0.74506E-05  7091   0.107E-02    0.346E-02
RMM:   6    -0.115969553540E+04   -0.44006E-04   -0.34167E-05  6853   0.771E-03    0.253E-02
RMM:   7    -0.115969557921E+04   -0.43803E-04   -0.25888E-05  6472   0.559E-03    0.227E-02
RMM:   8    -0.115969568338E+04   -0.10418E-03   -0.77714E-05  6653   0.965E-03    0.227E-02
RMM:   9    -0.115969580030E+04   -0.11691E-03   -0.13675E-04  6590   0.108E-02    0.187E-02
RMM:  10    -0.115969588799E+04   -0.87695E-04   -0.11386E-04  6288   0.873E-03
  11 F= -.11596959E+04 E0= -.11596959E+04  d E =-.531914E-02  mag=    10.0000
       N       E                     dE             d eps       ncg     rms          rms(c)
DAV:   1    -0.115961959696E+04    0.76203E-01   -0.11619E+01 12736   0.329E+00    0.229E+00
RMM:   2    -0.115969914239E+04   -0.79545E-01   -0.25208E-01 12459   0.632E-01    0.131E+00
RMM:   3    -0.115971118343E+04   -0.12041E-01   -0.15480E-02 12592   0.212E-01    0.480E-01
RMM:   4    -0.115971122068E+04   -0.37249E-04   -0.38129E-03 13557   0.744E-02    0.249E-01
RMM:   5    -0.115971134672E+04   -0.12604E-03   -0.11860E-03 11197   0.345E-02    0.151E-01
RMM:   6    -0.115971146797E+04   -0.12125E-03   -0.21675E-04  7940   0.194E-02    0.452E-02
RMM:   7    -0.115971153557E+04   -0.67607E-04   -0.83308E-05  7380   0.115E-02    0.360E-02
RMM:   8    -0.115971162577E+04   -0.90198E-04   -0.75590E-05  7223   0.111E-02
  12 F= -.11597116E+04 E0= -.11597116E+04  d E =-.157378E-01  mag=    10.0000
       N       E                     dE             d eps       ncg     rms          rms(c)
DAV:   1    -0.115971200149E+04   -0.46592E-03   -0.18785E-01 13008   0.463E-01    0.215E-01
RMM:   2    -0.115971277483E+04   -0.77334E-03   -0.54055E-03 12164   0.941E-02    0.144E-01
RMM:   3    -0.115971284977E+04   -0.74938E-04   -0.30536E-04  8576   0.335E-02    0.820E-02
RMM:   4    -0.115971290906E+04   -0.59284E-04   -0.19369E-04  7639   0.170E-02    0.448E-02
RMM:   5    -0.115971298193E+04   -0.72870E-04   -0.83390E-05  7150   0.103E-02    0.326E-02
RMM:   6    -0.115971301618E+04   -0.34257E-04   -0.28434E-05  6635   0.683E-03    0.263E-02
RMM:   7    -0.115971306127E+04   -0.45087E-04   -0.23950E-05  6094   0.551E-03    0.248E-02
RMM:   8    -0.115971314576E+04   -0.84488E-04   -0.50824E-05  6340   0.720E-03
  13 F= -.11597131E+04 E0= -.11597131E+04  d E =-.151999E-02  mag=    10.0000
       N       E                     dE             d eps       ncg     rms          rms(c)
DAV:   1    -0.115971284636E+04    0.21491E-03   -0.32966E-01 12608   0.625E-01    0.242E-01
RMM:   2    -0.115971411848E+04   -0.12721E-02   -0.77090E-03 12468   0.111E-01    0.135E-01
RMM:   3    -0.115971424966E+04   -0.13119E-03   -0.43509E-04  9032   0.392E-02    0.694E-02
RMM:   4    -0.115971430258E+04   -0.52917E-04   -0.14792E-04  7342   0.155E-02    0.382E-02
RMM:   5    -0.115971437332E+04   -0.70743E-04   -0.78859E-05  7102   0.103E-02    0.282E-02
RMM:   6    -0.115971440613E+04   -0.32803E-04   -0.28750E-05  6822   0.693E-03    0.234E-02
RMM:   7    -0.115971444580E+04   -0.39673E-04   -0.23567E-05  6357   0.593E-03    0.214E-02
RMM:   8    -0.115971454217E+04   -0.96372E-04   -0.78525E-05  6634   0.928E-03
  14 F= -.11597145E+04 E0= -.11597145E+04  d E =-.139641E-02  mag=    10.0000
       N       E                     dE             d eps       ncg     rms          rms(c)
DAV:   1    -0.115971308852E+04    0.13573E-02   -0.65090E-01 12576   0.874E-01    0.354E-01
RMM:   2    -0.115971574177E+04   -0.26533E-02   -0.15113E-02 12711   0.154E-01    0.192E-01
RMM:   3    -0.115971601786E+04   -0.27609E-03   -0.85713E-04 10831   0.516E-02    0.902E-02
RMM:   4    -0.115971605902E+04   -0.41157E-04   -0.20687E-04  7662   0.187E-02    0.465E-02
RMM:   5    -0.115971612514E+04   -0.66123E-04   -0.99097E-05  7185   0.124E-02    0.287E-02
RMM:   6    -0.115971615981E+04   -0.34663E-04   -0.36571E-05  6933   0.826E-03    0.228E-02
RMM:   7    -0.115971619489E+04   -0.35086E-04   -0.25584E-05  6728   0.619E-03    0.207E-02
RMM:   8    -0.115971629113E+04   -0.96241E-04   -0.86609E-05  6854   0.103E-02
  15 F= -.11597163E+04 E0= -.11597163E+04  d E =-.174896E-02  mag=    10.0000
       N       E                     dE             d eps       ncg     rms          rms(c)
DAV:   1    -0.115971570666E+04    0.48823E-03   -0.41760E-01 12560   0.719E-01    0.239E-01
RMM:   2    -0.115971715118E+04   -0.14445E-02   -0.99773E-03 12751   0.125E-01    0.134E-01
RMM:   3    -0.115971726233E+04   -0.11115E-03   -0.48421E-04  9346   0.400E-02    0.689E-02
RMM:   4    -0.115971728803E+04   -0.25694E-04   -0.13315E-04  7317   0.152E-02    0.368E-02
RMM:   5    -0.115971733601E+04   -0.47979E-04   -0.70599E-05  7044   0.104E-02    0.232E-02
RMM:   6    -0.115971736153E+04   -0.25526E-04   -0.27841E-05  6852   0.711E-03    0.190E-02
RMM:   7    -0.115971738700E+04   -0.25463E-04   -0.19331E-05  6383   0.565E-03    0.174E-02
RMM:   8    -0.115971744644E+04   -0.59440E-04   -0.48307E-05  6435   0.769E-03
  16 F= -.11597174E+04 E0= -.11597174E+04  d E =-.115530E-02  mag=    10.0000
