       N       E                     dE             d eps       ncg     rms          rms(c)
DAV:   1     0.120089818745E+05    0.12009E+05   -0.42368E+05 12352   0.132E+03
DAV:   2     0.683117835442E+03   -0.11326E+05   -0.10114E+05 12312   0.377E+02
DAV:   3    -0.135362525722E+04   -0.20367E+04   -0.19619E+04 13192   0.167E+02
DAV:   4    -0.149147746458E+04   -0.13785E+03   -0.13545E+03 16216   0.456E+01
DAV:   5    -0.150061202807E+04   -0.91346E+01   -0.90870E+01 22232   0.108E+01    0.183E+02
RMM:   6    -0.116403505416E+04    0.33658E+03   -0.16287E+03 12524   0.356E+01    0.122E+02
RMM:   7    -0.114633307821E+04    0.17702E+02   -0.64481E+01 12784   0.119E+01    0.752E+01
RMM:   8    -0.114985804389E+04   -0.35250E+01   -0.21381E+01 14333   0.520E+00    0.373E+01
RMM:   9    -0.115454714669E+04   -0.46891E+01   -0.83271E+00 13131   0.349E+00    0.141E+01
RMM:  10    -0.115566501585E+04   -0.11179E+01   -0.25814E+00 13746   0.187E+00    0.931E+00
RMM:  11    -0.115716442589E+04   -0.14994E+01   -0.15519E+00 15111   0.109E+00    0.648E+00
RMM:  12    -0.115809992740E+04   -0.93550E+00   -0.88256E-01 13489   0.973E-01    0.395E+00
RMM:  13    -0.115839066323E+04   -0.29074E+00   -0.47392E-01 14331   0.656E-01    0.165E+00
RMM:  14    -0.115846302541E+04   -0.72362E-01   -0.11159E-01 15895   0.311E-01    0.112E+00
RMM:  15    -0.115850940959E+04   -0.46384E-01   -0.65364E-02 14378   0.220E-01    0.510E-01
RMM:  16    -0.115852154659E+04   -0.12137E-01   -0.26607E-02 15002   0.155E-01    0.262E-01
RMM:  17    -0.115852351980E+04   -0.19732E-02   -0.68528E-03 16848   0.702E-02    0.187E-01
RMM:  18    -0.115852589630E+04   -0.23765E-02   -0.47746E-03 14634   0.555E-02    0.137E-01
RMM:  19    -0.115852713480E+04   -0.12385E-02   -0.21407E-03 11732   0.355E-02    0.118E-01
RMM:  20    -0.115852846942E+04   -0.13346E-02   -0.17202E-03 10723   0.315E-02    0.111E-01
RMM:  21    -0.115853127206E+04   -0.28026E-02   -0.46802E-03 11148   0.570E-02    0.106E-01
RMM:  22    -0.115853492882E+04   -0.36568E-02   -0.10596E-02 11117   0.837E-02    0.988E-02
RMM:  23    -0.115853754337E+04   -0.26145E-02   -0.81096E-03 11294   0.684E-02    0.917E-02
RMM:  24    -0.115854061148E+04   -0.30681E-02   -0.10802E-02 10931   0.821E-02    0.897E-02
RMM:  25    -0.115854178943E+04   -0.11779E-02   -0.32825E-03 10666   0.407E-02    0.895E-02
RMM:  26    -0.115854130454E+04    0.48489E-03   -0.20851E-04  8518   0.204E-02    0.910E-02
RMM:  27    -0.115854245518E+04   -0.11506E-02   -0.10027E-03  9245   0.314E-02    0.873E-02
RMM:  28    -0.115854437606E+04   -0.19209E-02   -0.33021E-03 10322   0.529E-02    0.790E-02
RMM:  29    -0.115854667066E+04   -0.22946E-02   -0.54567E-03 10537   0.702E-02    0.818E-02
RMM:  30    -0.115854780492E+04   -0.11343E-02   -0.21997E-03 10214   0.391E-02    0.898E-02
RMM:  31    -0.115854772729E+04    0.77633E-04   -0.15701E-04  8147   0.128E-02
   1 F= -.11585477E+04 E0= -.11585477E+04  d E =-.115855E+04  mag=     8.0000
       N       E                     dE             d eps       ncg     rms          rms(c)
DAV:   1    -0.114054750486E+04    0.18000E+02   -0.13300E+03 12464   0.330E+01    0.308E+01
RMM:   2    -0.115752687842E+04   -0.16979E+02   -0.19054E+02 12401   0.103E+01    0.169E+01
RMM:   3    -0.115454128196E+04    0.29856E+01   -0.80222E+00 12603   0.392E+00    0.112E+01
RMM:   4    -0.115500482133E+04   -0.46354E+00   -0.50558E+00 14230   0.119E+00    0.836E+00
RMM:   5    -0.115444319465E+04    0.56163E+00   -0.12252E+00 13186   0.726E-01    0.313E+00
RMM:   6    -0.115444924299E+04   -0.60483E-02   -0.18309E-01 13851   0.418E-01    0.183E+00
RMM:   7    -0.115442475830E+04    0.24485E-01   -0.13183E-01 14636   0.239E-01    0.101E+00
RMM:   8    -0.115442065961E+04    0.40987E-02   -0.20513E-02 15707   0.110E-01    0.437E-01
RMM:   9    -0.115442036453E+04    0.29508E-03   -0.36678E-03 16366   0.510E-02    0.195E-01
RMM:  10    -0.115442064309E+04   -0.27856E-03   -0.20086E-03 14628   0.352E-02    0.843E-02
RMM:  11    -0.115442095987E+04   -0.31678E-03   -0.63314E-04 10452   0.233E-02    0.702E-02
RMM:  12    -0.115442132175E+04   -0.36188E-03   -0.46598E-04  9794   0.197E-02    0.611E-02
RMM:  13    -0.115442173639E+04   -0.41464E-03   -0.48618E-04  9356   0.208E-02    0.575E-02
RMM:  14    -0.115442213523E+04   -0.39884E-03   -0.46434E-04  9022   0.199E-02    0.530E-02
RMM:  15    -0.115442274299E+04   -0.60775E-03   -0.91514E-04  9259   0.293E-02    0.488E-02
RMM:  16    -0.115442339333E+04   -0.65034E-03   -0.13405E-03  9572   0.351E-02    0.473E-02
RMM:  17    -0.115442390566E+04   -0.51234E-03   -0.10603E-03  9226   0.299E-02    0.447E-02
RMM:  18    -0.115442421444E+04   -0.30877E-03   -0.50896E-04  8667   0.190E-02    0.440E-02
RMM:  19    -0.115442412807E+04    0.86371E-04   -0.54608E-05  7622   0.105E-02
   2 F= -.11544241E+04 E0= -.11544241E+04  d E =0.412360E+01  mag=     8.0000
       N       E                     dE             d eps       ncg     rms          rms(c)
DAV:   1    -0.115572928041E+04   -0.13051E+01   -0.56095E+02 12464   0.201E+01    0.193E+01
RMM:   2    -0.115740326390E+04   -0.16740E+01   -0.24441E+01 12315   0.556E+00    0.162E+01
RMM:   3    -0.115756388624E+04   -0.16062E+00   -0.20552E+00 13985   0.177E+00    0.864E+00
RMM:   4    -0.115776116831E+04   -0.19728E+00   -0.17974E+00 13210   0.110E+00    0.565E+00
RMM:   5    -0.115738552072E+04    0.37565E+00   -0.52068E-01 13117   0.578E-01    0.139E+00
RMM:   6    -0.115736865573E+04    0.16865E-01   -0.40100E-02 14590   0.209E-01    0.770E-01
RMM:   7    -0.115737219811E+04   -0.35424E-02   -0.22803E-02 14216   0.119E-01    0.451E-01
RMM:   8    -0.115736962728E+04    0.25708E-02   -0.44721E-03 15260   0.565E-02    0.206E-01
RMM:   9    -0.115736946930E+04    0.15799E-03   -0.21851E-03 13994   0.354E-02    0.873E-02
RMM:  10    -0.115736973792E+04   -0.26863E-03   -0.54320E-04 10265   0.227E-02    0.724E-02
RMM:  11    -0.115737001860E+04   -0.28067E-03   -0.32523E-04  9179   0.163E-02    0.652E-02
RMM:  12    -0.115737043531E+04   -0.41671E-03   -0.35152E-04  8801   0.184E-02    0.630E-02
RMM:  13    -0.115737078211E+04   -0.34680E-03   -0.28024E-04  8354   0.152E-02    0.617E-02
RMM:  14    -0.115737114176E+04   -0.35965E-03   -0.25940E-04  8169   0.149E-02    0.615E-02
RMM:  15    -0.115737195419E+04   -0.81243E-03   -0.95296E-04  8927   0.300E-02    0.603E-02
RMM:  16    -0.115737337156E+04   -0.14174E-02   -0.33995E-03 10163   0.590E-02    0.591E-02
RMM:  17    -0.115737380464E+04   -0.43308E-03   -0.78984E-04  8793   0.245E-02    0.585E-02
RMM:  18    -0.115737541253E+04   -0.16079E-02   -0.45892E-03 10374   0.698E-02    0.567E-02
RMM:  19    -0.115737637853E+04   -0.96600E-03   -0.23040E-03  9777   0.441E-02    0.548E-02
RMM:  20    -0.115737593341E+04    0.44512E-03   -0.27727E-04  7841   0.236E-02    0.552E-02
RMM:  21    -0.115737700250E+04   -0.10691E-02   -0.16502E-03  9684   0.470E-02    0.497E-02
RMM:  22    -0.115737896093E+04   -0.19584E-02   -0.25987E-02 11517   0.176E-01    0.104E-01
RMM:  23    -0.115737887999E+04    0.80940E-04   -0.36780E-03 10520   0.794E-02    0.665E-02
RMM:  24    -0.115738093522E+04   -0.20552E-02   -0.62145E-03 10514   0.889E-02    0.414E-02
RMM:  25    -0.115738181873E+04   -0.88350E-03   -0.27885E-03 10022   0.456E-02    0.461E-02
RMM:  26    -0.115738127748E+04    0.54125E-03   -0.57906E-04  8408   0.337E-02    0.470E-02
RMM:  27    -0.115738126394E+04    0.13537E-04   -0.56533E-05  6613   0.892E-03
   3 F= -.11573813E+04 E0= -.11573813E+04  d E =-.295714E+01  mag=     8.0000
       N       E                     dE             d eps       ncg     rms          rms(c)
DAV:   1    -0.115857495957E+04   -0.11937E+01   -0.15139E+02 12576   0.119E+01    0.634E+00
RMM:   2    -0.115891402968E+04   -0.33907E+00   -0.49327E+00 12366   0.232E+00    0.476E+00
RMM:   3    -0.115887559057E+04    0.38439E-01   -0.28325E-01 13202   0.718E-01    0.257E+00
RMM:   4    -0.115885794317E+04    0.17647E-01   -0.14327E-01 13087   0.361E-01    0.825E-01
RMM:   5    -0.115885159352E+04    0.63497E-02   -0.22092E-02 13046   0.173E-01    0.475E-01
RMM:   6    -0.115885117308E+04    0.42044E-03   -0.44953E-03 16259   0.587E-02    0.287E-01
RMM:   7    -0.115885135400E+04   -0.18092E-03   -0.19945E-03 14544   0.377E-02    0.152E-01
RMM:   8    -0.115885149645E+04   -0.14245E-03   -0.85259E-04 12787   0.287E-02    0.600E-02
RMM:   9    -0.115885163078E+04   -0.13433E-03   -0.24516E-04  9408   0.160E-02    0.538E-02
RMM:  10    -0.115885185160E+04   -0.22082E-03   -0.21092E-04  8719   0.145E-02    0.504E-02
RMM:  11    -0.115885205404E+04   -0.20245E-03   -0.16404E-04  8267   0.132E-02    0.497E-02
RMM:  12    -0.115885227472E+04   -0.22067E-03   -0.16265E-04  7947   0.126E-02    0.488E-02
RMM:  13    -0.115885248731E+04   -0.21259E-03   -0.14642E-04  7747   0.114E-02    0.483E-02
RMM:  14    -0.115885308262E+04   -0.59531E-03   -0.78184E-04  8830   0.284E-02    0.473E-02
RMM:  15    -0.115885398447E+04   -0.90185E-03   -0.22995E-03 10056   0.488E-02    0.448E-02
RMM:  16    -0.115885506296E+04   -0.10785E-02   -0.39828E-03 10245   0.655E-02    0.438E-02
RMM:  17    -0.115885588324E+04   -0.82029E-03   -0.26741E-03 10059   0.483E-02    0.427E-02
RMM:  18    -0.115885551219E+04    0.37105E-03   -0.33985E-04  8029   0.257E-02    0.448E-02
RMM:  19    -0.115885638840E+04   -0.87621E-03   -0.19095E-03  9919   0.513E-02    0.403E-02
RMM:  20    -0.115885770089E+04   -0.13125E-02   -0.93606E-03 10690   0.105E-01    0.464E-02
RMM:  21    -0.115885753807E+04    0.16282E-03   -0.86669E-04  9101   0.384E-02    0.444E-02
RMM:  22    -0.115885858279E+04   -0.10447E-02   -0.34518E-03 10195   0.647E-02    0.333E-02
RMM:  23    -0.115885904978E+04   -0.46699E-03   -0.13285E-03  9226   0.305E-02    0.362E-02
RMM:  24    -0.115885837092E+04    0.67886E-03   -0.10147E-03  9315   0.428E-02    0.444E-02
RMM:  25    -0.115885738379E+04    0.98713E-03   -0.25318E-03  9895   0.538E-02    0.585E-02
RMM:  26    -0.115885650059E+04    0.88320E-03   -0.26436E-03  9870   0.531E-02    0.633E-02
RMM:  27    -0.115885568801E+04    0.81258E-03   -0.23779E-03  9869   0.482E-02    0.696E-02
RMM:  28    -0.115885579654E+04   -0.10853E-03   -0.29245E-04  7697   0.152E-02    0.629E-02
RMM:  29    -0.115885583559E+04   -0.39051E-04   -0.27542E-05  6521   0.950E-03
   4 F= -.11588558E+04 E0= -.11588558E+04  d E =-.147457E+01  mag=     8.0000
       N       E                     dE             d eps       ncg     rms          rms(c)
DAV:   1    -0.115939903975E+04   -0.54324E+00   -0.47592E+01 12832   0.703E+00    0.243E+00
RMM:   2    -0.115951628851E+04   -0.11725E+00   -0.15846E+00 12424   0.134E+00    0.326E+00
RMM:   3    -0.115949551444E+04    0.20774E-01   -0.62187E-02 13676   0.353E-01    0.267E+00
RMM:   4    -0.115949023277E+04    0.52817E-02   -0.26411E-02 12815   0.155E-01    0.167E+00
RMM:   5    -0.115947749535E+04    0.12737E-01   -0.27884E-02 12828   0.154E-01    0.312E-01
RMM:   6    -0.115947700880E+04    0.48655E-03   -0.22763E-03 11505   0.553E-02    0.256E-01
RMM:   7    -0.115947682958E+04    0.17922E-03   -0.10336E-03 10925   0.286E-02    0.122E-01
RMM:   8    -0.115947698035E+04   -0.15077E-03   -0.32540E-04  9205   0.236E-02    0.624E-02
RMM:   9    -0.115947713267E+04   -0.15231E-03   -0.11546E-04  7752   0.131E-02    0.487E-02
RMM:  10    -0.115947729177E+04   -0.15911E-03   -0.95305E-05  7452   0.105E-02    0.463E-02
RMM:  11    -0.115947742922E+04   -0.13744E-03   -0.71884E-05  7218   0.831E-03    0.452E-02
RMM:  12    -0.115947757849E+04   -0.14927E-03   -0.70585E-05  6958   0.805E-03    0.452E-02
RMM:  13    -0.115947789616E+04   -0.31768E-03   -0.24883E-04  7515   0.157E-02    0.441E-02
RMM:  14    -0.115947860329E+04   -0.70712E-03   -0.14241E-03  9480   0.384E-02    0.416E-02
RMM:  15    -0.115947971308E+04   -0.11098E-02   -0.47377E-03 10269   0.734E-02    0.419E-02
RMM:  16    -0.115948057820E+04   -0.86512E-03   -0.32051E-03 10094   0.554E-02    0.407E-02
RMM:  17    -0.115948046156E+04    0.11664E-03   -0.30819E-04  7977   0.186E-02    0.434E-02
RMM:  18    -0.115948057163E+04   -0.11007E-03   -0.63996E-05  6721   0.105E-02    0.428E-02
RMM:  19    -0.115948135846E+04   -0.78683E-03   -0.25527E-03  9980   0.545E-02    0.437E-02
RMM:  20    -0.115948162826E+04   -0.26980E-03   -0.42789E-04  8180   0.194E-02    0.390E-02
RMM:  21    -0.115948253240E+04   -0.90414E-03   -0.43585E-03 10355   0.706E-02    0.456E-02
RMM:  22    -0.115948306401E+04   -0.53162E-03   -0.14282E-03  9356   0.337E-02    0.458E-02
RMM:  23    -0.115948120184E+04    0.18622E-02   -0.68489E-03 10468   0.100E-01    0.623E-02
RMM:  24    -0.115948107061E+04    0.13123E-03   -0.13260E-03  9028   0.349E-02    0.564E-02
RMM:  25    -0.115947925281E+04    0.18178E-02   -0.62327E-03 10392   0.853E-02    0.754E-02
RMM:  26    -0.115947955806E+04   -0.30525E-03   -0.60796E-04  8485   0.219E-02    0.648E-02
RMM:  27    -0.115947941569E+04    0.14237E-03   -0.14703E-04  7248   0.158E-02    0.649E-02
RMM:  28    -0.115947944150E+04   -0.25815E-04   -0.37351E-05  6317   0.675E-03
   5 F= -.11594794E+04 E0= -.11594794E+04  d E =-.623606E+00  mag=     8.0000
       N       E                     dE             d eps       ncg     rms          rms(c)
DAV:   1    -0.115284381143E+04    0.66356E+01   -0.67714E+02 12360   0.257E+01    0.163E+01
RMM:   2    -0.115699636548E+04   -0.41526E+01   -0.53107E+01 12335   0.497E+00    0.152E+01
RMM:   3    -0.115651829765E+04    0.47807E+00   -0.25072E+00 12599   0.188E+00    0.147E+01
RMM:   4    -0.115631963977E+04    0.19866E+00   -0.83786E-01 16191   0.678E-01    0.940E+00
RMM:   5    -0.115629744279E+04    0.22197E-01   -0.11891E+00 12299   0.873E-01    0.267E+00
RMM:   6    -0.115623607766E+04    0.61365E-01   -0.33353E-01 13487   0.404E-01    0.221E+00
RMM:   7    -0.115623940127E+04   -0.33236E-02   -0.39793E-02 18312   0.134E-01    0.177E+00
RMM:   8    -0.115623356521E+04    0.58361E-02   -0.18400E-02 16936   0.906E-02    0.518E-01
RMM:   9    -0.115623372300E+04   -0.15779E-03   -0.65793E-03 15253   0.549E-02    0.162E-01
RMM:  10    -0.115623409672E+04   -0.37372E-03   -0.12787E-03 12732   0.299E-02    0.119E-01
RMM:  11    -0.115623439203E+04   -0.29531E-03   -0.92530E-04 11211   0.236E-02    0.757E-02
RMM:  12    -0.115623488672E+04   -0.49469E-03   -0.57804E-04  9686   0.230E-02    0.720E-02
RMM:  13    -0.115623524919E+04   -0.36246E-03   -0.37438E-04  8935   0.178E-02    0.652E-02
RMM:  14    -0.115623584188E+04   -0.59269E-03   -0.56989E-04  8778   0.245E-02    0.615E-02
RMM:  15    -0.115623690633E+04   -0.10644E-02   -0.18397E-03  9909   0.453E-02    0.554E-02
RMM:  16    -0.115623797053E+04   -0.10642E-02   -0.25421E-03 10041   0.535E-02    0.529E-02
RMM:  17    -0.115623878772E+04   -0.81718E-03   -0.19554E-03  9804   0.436E-02    0.483E-02
RMM:  18    -0.115623983987E+04   -0.10522E-02   -0.35391E-03 10194   0.621E-02    0.471E-02
RMM:  19    -0.115624036080E+04   -0.52093E-03   -0.13240E-03  9355   0.311E-02    0.459E-02
RMM:  20    -0.115624068916E+04   -0.32836E-03   -0.50033E-04  8259   0.207E-02    0.437E-02
RMM:  21    -0.115624205600E+04   -0.13668E-02   -0.93850E-03 10779   0.106E-01    0.492E-02
RMM:  22    -0.115624323238E+04   -0.11764E-02   -0.12908E-02 11056   0.121E-01    0.624E-02
RMM:  23    -0.115624391161E+04   -0.67924E-03   -0.17595E-03  9650   0.330E-02    0.418E-02
RMM:  24    -0.115624406565E+04   -0.15404E-03   -0.39887E-04  8208   0.215E-02    0.450E-02
RMM:  25    -0.115624415871E+04   -0.93052E-04   -0.12509E-04  7349   0.110E-02
   6 F= -.11562442E+04 E0= -.11562442E+04  d E =0.323528E+01  mag=     8.0000
       N       E                     dE             d eps       ncg     rms          rms(c)
DAV:   1    -0.115892670714E+04   -0.26826E+01   -0.53845E+02 12288   0.179E+01    0.183E+01
RMM:   2    -0.115993066632E+04   -0.10040E+01   -0.24906E+01 12305   0.554E+00    0.156E+01
RMM:   3    -0.115993639114E+04   -0.57248E-02   -0.17914E+00 14170   0.171E+00    0.950E+00
RMM:   4    -0.116006908472E+04   -0.13269E+00   -0.12623E+00 13369   0.100E+00    0.407E+00
RMM:   5    -0.115988408533E+04    0.18500E+00   -0.40673E-01 13141   0.515E-01    0.116E+00
RMM:   6    -0.115986821152E+04    0.15874E-01   -0.34559E-02 15875   0.198E-01    0.522E-01
RMM:   7    -0.115986882970E+04   -0.61817E-03   -0.12258E-02 17840   0.910E-02    0.210E-01
RMM:   8    -0.115986897640E+04   -0.14671E-03   -0.24619E-03 15952   0.418E-02    0.906E-02
RMM:   9    -0.115986915179E+04   -0.17538E-03   -0.10722E-03 13306   0.265E-02    0.551E-02
RMM:  10    -0.115986936248E+04   -0.21069E-03   -0.59041E-04 11232   0.211E-02    0.453E-02
RMM:  11    -0.115986954809E+04   -0.18562E-03   -0.36562E-04 10225   0.178E-02    0.399E-02
RMM:  12    -0.115986972670E+04   -0.17861E-03   -0.28988E-04  9631   0.160E-02    0.373E-02
RMM:  13    -0.115986995327E+04   -0.22657E-03   -0.31140E-04  9114   0.169E-02    0.349E-02
RMM:  14    -0.115987028048E+04   -0.32721E-03   -0.57778E-04  9016   0.235E-02    0.314E-02
RMM:  15    -0.115987062555E+04   -0.34507E-03   -0.88240E-04  9190   0.287E-02    0.280E-02
RMM:  16    -0.115987092948E+04   -0.30393E-03   -0.95875E-04  9186   0.294E-02    0.260E-02
RMM:  17    -0.115987112563E+04   -0.19615E-03   -0.56024E-04  8689   0.203E-02    0.252E-02
RMM:  18    -0.115987116881E+04   -0.43183E-04   -0.90684E-05  7601   0.958E-03
   7 F= -.11598712E+04 E0= -.11598712E+04  d E =-.362701E+01  mag=     8.0000
       N       E                     dE             d eps       ncg     rms          rms(c)
DAV:   1    -0.116003214678E+04   -0.16102E+00   -0.19144E+01 12640   0.485E+00    0.135E+00
RMM:   2    -0.116007022680E+04   -0.38080E-01   -0.55036E-01 12391   0.925E-01    0.133E+00
RMM:   3    -0.116006712543E+04    0.31014E-02   -0.32947E-02 12831   0.327E-01    0.925E-01
RMM:   4    -0.116006434018E+04    0.27852E-02   -0.12631E-02 13243   0.122E-01    0.571E-01
RMM:   5    -0.116006256536E+04    0.17748E-02   -0.49628E-03 12456   0.757E-02    0.145E-01
RMM:   6    -0.116006258969E+04   -0.24331E-04   -0.65928E-04 11112   0.288E-02    0.103E-01
RMM:   7    -0.116006265090E+04   -0.61208E-04   -0.19794E-04  8447   0.160E-02    0.590E-02
RMM:   8    -0.116006275136E+04   -0.10046E-03   -0.12596E-04  7943   0.131E-02    0.382E-02
RMM:   9    -0.116006280387E+04   -0.52510E-04   -0.59413E-05  7499   0.102E-02
   8 F= -.11600628E+04 E0= -.11600628E+04  d E =-.191635E+00  mag=     8.0000
       N       E                     dE             d eps       ncg     rms          rms(c)
DAV:   1    -0.116012427825E+04   -0.61527E-01   -0.32944E+00 12800   0.202E+00    0.665E-01
RMM:   2    -0.116013003399E+04   -0.57557E-02   -0.10792E-01 12345   0.412E-01    0.698E-01
RMM:   3    -0.116012926304E+04    0.77095E-03   -0.65025E-03 12971   0.140E-01    0.495E-01
RMM:   4    -0.116012854779E+04    0.71525E-03   -0.32952E-03 12488   0.629E-02    0.274E-01
RMM:   5    -0.116012820945E+04    0.33834E-03   -0.11193E-03 11196   0.409E-02    0.724E-02
RMM:   6    -0.116012823580E+04   -0.26349E-04   -0.13099E-04  8158   0.155E-02    0.531E-02
RMM:   7    -0.116012828649E+04   -0.50694E-04   -0.71684E-05  7511   0.102E-02    0.396E-02
RMM:   8    -0.116012836360E+04   -0.77108E-04   -0.67572E-05  7254   0.105E-02
   9 F= -.11601284E+04 E0= -.11601284E+04  d E =-.655597E-01  mag=     8.0000
       N       E                     dE             d eps       ncg     rms          rms(c)
DAV:   1    -0.115995525345E+04    0.17303E+00   -0.12299E+02 12568   0.120E+01    0.364E+00
RMM:   2    -0.116029570568E+04   -0.34045E+00   -0.40844E+00 12431   0.229E+00    0.389E+00
RMM:   3    -0.116028322918E+04    0.12477E-01   -0.23100E-01 13519   0.772E-01    0.318E+00
RMM:   4    -0.116026922643E+04    0.14003E-01   -0.95497E-02 14096   0.310E-01    0.171E+00
RMM:   5    -0.116026069887E+04    0.85276E-02   -0.36553E-02 13511   0.183E-01    0.379E-01
RMM:   6    -0.116025981718E+04    0.88170E-03   -0.34957E-03 14782   0.677E-02    0.264E-01
RMM:   7    -0.116025964833E+04    0.16884E-03   -0.17814E-03 15300   0.357E-02    0.134E-01
RMM:   8    -0.116025973262E+04   -0.84283E-04   -0.74821E-04 12103   0.261E-02
  10 F= -.11602597E+04 E0= -.11602597E+04  d E =-.131369E+00  mag=     8.0000
       N       E                     dE             d eps       ncg     rms          rms(c)
DAV:   1    -0.116027108683E+04   -0.11438E-01   -0.13138E+01 12592   0.391E+00    0.167E+00
RMM:   2    -0.116030150529E+04   -0.30418E-01   -0.47113E-01 12363   0.814E-01    0.178E+00
RMM:   3    -0.116029798673E+04    0.35186E-02   -0.24549E-02 12885   0.253E-01    0.141E+00
RMM:   4    -0.116029658952E+04    0.13972E-02   -0.17766E-02 12791   0.138E-01    0.664E-01
RMM:   5    -0.116029389986E+04    0.26897E-02   -0.55270E-03 12288   0.809E-02    0.165E-01
RMM:   6    -0.116029380601E+04    0.93849E-04   -0.73918E-04 10878   0.273E-02    0.116E-01
RMM:   7    -0.116029379994E+04    0.60683E-05   -0.19372E-04  8346   0.158E-02    0.623E-02
RMM:   8    -0.116029387777E+04   -0.77823E-04   -0.16286E-04  7930   0.138E-02
  11 F= -.11602939E+04 E0= -.11602939E+04  d E =-.341451E-01  mag=     8.0000
       N       E                     dE             d eps       ncg     rms          rms(c)
DAV:   1    -0.116029754632E+04   -0.37464E-02   -0.45684E+00 12656   0.241E+00    0.619E-01
RMM:   2    -0.116030704767E+04   -0.95013E-02   -0.13101E-01 12349   0.441E-01    0.560E-01
RMM:   3    -0.116030659081E+04    0.45686E-03   -0.67122E-03 12581   0.149E-01    0.389E-01
RMM:   4    -0.116030602342E+04    0.56740E-03   -0.32564E-03 12766   0.607E-02    0.206E-01
RMM:   5    -0.116030585869E+04    0.16472E-03   -0.81311E-04 10833   0.343E-02    0.626E-02
RMM:   6    -0.116030589076E+04   -0.32062E-04   -0.99782E-05  7782   0.144E-02    0.465E-02
RMM:   7    -0.116030594994E+04   -0.59189E-04   -0.71658E-05  7420   0.995E-03    0.338E-02
RMM:   8    -0.116030601308E+04   -0.63136E-04   -0.54229E-05  7273   0.937E-03
  12 F= -.11603060E+04 E0= -.11603060E+04  d E =-.121353E-01  mag=     8.0000
       N       E                     dE             d eps       ncg     rms          rms(c)
DAV:   1    -0.116031132261E+04   -0.53727E-02   -0.65778E-01 12856   0.894E-01    0.323E-01
RMM:   2    -0.116031264625E+04   -0.13236E-02   -0.22066E-02 12204   0.182E-01    0.288E-01
RMM:   3    -0.116031250917E+04    0.13708E-03   -0.11574E-03 11781   0.591E-02    0.198E-01
RMM:   4    -0.116031242905E+04    0.80114E-04   -0.84004E-04 10859   0.313E-02    0.878E-02
RMM:   5    -0.116031242977E+04   -0.72016E-06   -0.16153E-04  8275   0.198E-02    0.421E-02
RMM:   6    -0.116031246110E+04   -0.31324E-04   -0.53731E-05  7203   0.852E-03    0.340E-02
RMM:   7    -0.116031249601E+04   -0.34913E-04   -0.25841E-05  6845   0.714E-03    0.309E-02
RMM:   8    -0.116031255689E+04   -0.60876E-04   -0.39141E-05  6941   0.709E-03
  13 F= -.11603126E+04 E0= -.11603126E+04  d E =-.654381E-02  mag=     8.0000
       N       E                     dE             d eps       ncg     rms          rms(c)
DAV:   1    -0.116031460626E+04   -0.21102E-02   -0.21532E+00 12648   0.168E+00    0.314E-01
RMM:   2    -0.116031948970E+04   -0.48834E-02   -0.52418E-02 12456   0.281E-01    0.212E-01
RMM:   3    -0.116031954636E+04   -0.56666E-04   -0.28486E-03 12355   0.105E-01    0.142E-01
RMM:   4    -0.116031949247E+04    0.53891E-04   -0.71759E-04 11644   0.316E-02    0.980E-02
RMM:   5    -0.116031951318E+04   -0.20712E-04   -0.20284E-04  7875   0.189E-02    0.367E-02
RMM:   6    -0.116031956035E+04   -0.47169E-04   -0.79242E-05  7208   0.124E-02    0.283E-02
RMM:   7    -0.116031958628E+04   -0.25932E-04   -0.38859E-05  7015   0.924E-03    0.267E-02
RMM:   8    -0.116031962626E+04   -0.39975E-04   -0.31652E-05  6866   0.782E-03
  14 F= -.11603196E+04 E0= -.11603196E+04  d E =-.706937E-02  mag=     8.0000
       N       E                     dE             d eps       ncg     rms          rms(c)
DAV:   1    -0.116032051368E+04   -0.92740E-03   -0.24560E+00 12592   0.180E+00    0.337E-01
RMM:   2    -0.116032599252E+04   -0.54788E-02   -0.60339E-02 12457   0.301E-01    0.222E-01
RMM:   3    -0.116032602586E+04   -0.33346E-04   -0.32582E-03 12387   0.113E-01    0.146E-01
RMM:   4    -0.116032595711E+04    0.68753E-04   -0.89999E-04 12629   0.344E-02    0.880E-02
RMM:   5    -0.116032599232E+04   -0.35208E-04   -0.22837E-04  8122   0.196E-02    0.326E-02
RMM:   6    -0.116032603013E+04   -0.37807E-04   -0.66905E-05  7221   0.119E-02    0.268E-02
RMM:   7    -0.116032606783E+04   -0.37700E-04   -0.48349E-05  7055   0.989E-03    0.256E-02
RMM:   8    -0.116032613142E+04   -0.63595E-04   -0.54356E-05  6938   0.945E-03
  15 F= -.11603261E+04 E0= -.11603261E+04  d E =-.650516E-02  mag=     8.0000
       N       E                     dE             d eps       ncg     rms          rms(c)
DAV:   1    -0.116031361826E+04    0.12450E-01   -0.10049E+01 12480   0.364E+00    0.643E-01
RMM:   2    -0.116033617672E+04   -0.22558E-01   -0.24441E-01 12465   0.606E-01    0.397E-01
RMM:   3    -0.116033633201E+04   -0.15530E-03   -0.13237E-02 12523   0.230E-01    0.270E-01
RMM:   4    -0.116033599277E+04    0.33924E-03   -0.34726E-03 15826   0.663E-02    0.182E-01
RMM:   5    -0.116033596194E+04    0.30833E-04   -0.88593E-04 12965   0.268E-02    0.561E-02
RMM:   6    -0.116033601381E+04   -0.51871E-04   -0.16827E-04  7953   0.177E-02    0.340E-02
RMM:   7    -0.116033605650E+04   -0.42694E-04   -0.88568E-05  7433   0.117E-02    0.307E-02
RMM:   8    -0.116033610027E+04   -0.43765E-04   -0.62356E-05  7225   0.111E-02
  16 F= -.11603361E+04 E0= -.11603361E+04  d E =-.996885E-02  mag=     8.0000
